LAMMPS (17 Apr 2024 - Development - a8687b5)
KOKKOS mode with Kokkos version 4.3.1 is enabled (src/KOKKOS/kokkos.cpp:72)
  will use up to 8 GPU(s) per node
WARNING: Turning off GPU-aware MPI since it is not detected, use '-pk kokkos gpu/aware on' to override (src/KOKKOS/kokkos.cpp:291)
  using 1 OpenMP thread(s) per MPI task
Reading data file ...
  triclinic box = (0 0 0) to (22.326 11.1412 13.778966) with tilt (0 -5.02603 0)
  8 by 4 by 8 MPI processor grid
  reading atoms ...
  304 atoms
  reading velocities ...
  304 velocities
  read_data CPU = 0.022 seconds
Replication is creating a 64x64x32 = 131072 times larger system...
  triclinic box = (0 0 0) to (1428.864 713.0368 440.92691) with tilt (0 -160.83296 0)
  8 by 8 by 4 MPI processor grid
  bounding box image = (0 -1 -1) to (0 1 1)
  bounding box extra memory = 0.03 MB
  average # of replicas added to proc = 835.00 out of 131072 (0.64%)
  39845888 atoms
  replicate CPU = 0.117 seconds
Neighbor list info ...
  update: every = 20 steps, delay = 0 steps, check = no
  max neighbors/atom: 2000, page size: 100000
  master list distance cutoff = 11
  ghost atom cutoff = 11
  binsize = 11, bins = 145 65 41
  2 neighbor lists, perpetual/occasional/extra = 2 0 0
  (1) pair reaxff/kk, perpetual
      attributes: half, newton off, ghost, kokkos_device
      pair build: half/bin/newtoff/ghost/kk/device
      stencil: full/ghost/bin/3d
      bin: kk/device
  (2) fix qeq/reax/kk, perpetual
      attributes: full, newton off, kokkos_device
      pair build: full/bin/kk/device
      stencil: full/bin/3d
      bin: kk/device
Setting up Verlet run ...
  Unit style    : real
  Current step  : 0
  Time step     : 0.1
Per MPI rank memory allocation (min/avg/max) = 1866 | 1866 | 1873 Mbytes
   Step          Temp          PotEng         Press          E_vdwl         E_coul         Volume    
         0   300           -113.27833      439.02134     -111.57687     -1.7014647      4.4923072e+08
        10   300.76708     -113.28045      807.2964      -111.57901     -1.7014362      4.4923072e+08
        20   302.42351     -113.28524      1696.9809     -111.58392     -1.7013253      4.4923072e+08
        30   302.57588     -113.28557      4297.9511     -111.58447     -1.7010962      4.4923072e+08
        40   300.62223     -113.27967      6393.3542     -111.5789      -1.7007689      4.4923072e+08
        50   297.4189      -113.27008      6471.1313     -111.56968     -1.7004027      4.4923072e+08
        60   294.72952     -113.26202      6185.6259     -111.56199     -1.7000319      4.4923072e+08
        70   294.6668      -113.26179      6831.1942     -111.56213     -1.6996547      4.4923072e+08
        80   297.78808     -113.27107      8233.8586     -111.5718      -1.699276       4.4923072e+08
        90   301.67958     -113.28267      9372.0541     -111.58373     -1.6989386      4.4923072e+08
       100   302.56511     -113.28525      10370.533     -111.58656     -1.6986951      4.4923072e+08
Loop time of 16.7663 on 256 procs for 100 steps with 39845888 atoms

Performance: 0.052 ns/day, 465.730 hours/ns, 5.964 timesteps/s, 237.655 Matom-step/s
98.1% CPU use with 256 MPI tasks x 1 OpenMP threads

MPI task timing breakdown:
Section |  min time  |  avg time  |  max time  |%varavg| %total
---------------------------------------------------------------
Pair    | 2.4498     | 2.5982     | 2.6688     |   3.3 | 15.50
Neigh   | 0.17108    | 0.30324    | 0.38235    |  10.5 |  1.81
Comm    | 1.2452     | 1.4338     | 1.6798     |  10.0 |  8.55
Output  | 0.0067582  | 0.036663   | 0.046331   |   3.8 |  0.22
Modify  | 12.025     | 12.332     | 12.58      |   3.6 | 73.55
Other   |            | 0.06231    |            |       |  0.37

Nlocal:         155648 ave      155688 max      155612 min
Histogram: 2 17 25 53 56 43 23 19 9 9
Nghost:         106807 ave      106862 max      106747 min
Histogram: 9 10 15 26 48 57 45 25 14 7
Neighs:    4.22133e+07 ave  4.2224e+07 max 4.22041e+07 min
Histogram: 3 20 25 59 57 34 16 25 11 6
FullNghs:  7.63742e+07 ave 7.63937e+07 max 7.63564e+07 min
Histogram: 4 16 27 54 58 35 19 24 13 6

Total # of neighbors = 1.9551784e+10
Ave neighs/atom = 490.68511
Neighbor list builds = 5
Dangerous builds not checked
Total wall time: 0:00:20
START OF JOBSPEC
{"resources": [{"type": "node", "count": 32, "with": [{"type": "slot", "count": 8, "with": [{"type": "core", "count": 1}, {"type": "gpu", "count": 1}], "label": "task"}]}], "tasks": [{"command": ["lmp", "-k", "on", "g", "8", "-sf", "kk", "-pk", "kokkos", "cuda/aware", "off", "newton", "on", "neigh", "half", "-in", "in.reaxff.hns", "-v", "x", "64", "-v", "y", "64", "-v", "z", "32", "-in", "in.reaxff.hns", "-nocite"], "slot": "task", "count": {"per_slot": 1}}], "attributes": {"system": {"duration": 0, "cwd": "/code/lammps/examples/reaxff/HNS", "shell": {"options": {"rlimit": {"cpu": -1, "fsize": -1, "data": -1, "stack": 8388608, "core": -1, "nofile": 1048576, "as": -1, "rss": -1, "nproc": -1}, "cpu-affinity": "per-task"}}}, "user": {"study_id": "lammps-reax-32-iter-2"}}, "version": 1}
START OF EVENTLOG
{"timestamp":1725114591.5310276,"name":"init"}
{"timestamp":1725114591.5319109,"name":"starting"}
{"timestamp":1725114591.5558066,"name":"shell.init","context":{"service":"0-shell-fjaCrqbM","leader-rank":0,"size":32}}
{"timestamp":1725114591.5844276,"name":"shell.start","context":{"taskmap":{"version":1,"map":[[0,32,8,1]]}}}
{"timestamp":1725114613.5049412,"name":"shell.task-exit","context":{"localid":5,"rank":221,"state":"Exited","pid":221,"wait_status":0,"signaled":0,"exitcode":0}}
{"timestamp":1725114613.8212631,"name":"complete","context":{"status":0}}
{"timestamp":1725114613.8212962,"name":"done"}

