LAMMPS (17 Apr 2024 - Development - a8687b5)
OMP_NUM_THREADS environment is not set. Defaulting to 1 thread. (src/comm.cpp:98)
  using 1 OpenMP thread(s) per MPI task
Reading data file ...
  triclinic box = (0 0 0) to (22.326 11.1412 13.778966) with tilt (0 -5.02603 0)
  32 by 16 by 28 MPI processor grid
  reading atoms ...
  304 atoms
  reading velocities ...
  304 velocities
  read_data CPU = 0.532 seconds
Replication is creating a 64x64x32 = 131072 times larger system...
  triclinic box = (0 0 0) to (1428.864 713.0368 440.92691) with tilt (0 -160.83296 0)
  32 by 28 by 16 MPI processor grid
  bounding box image = (0 -1 -1) to (0 1 1)
  bounding box extra memory = 0.03 MB
  average # of replicas added to proc = 42.33 out of 131072 (0.03%)
  39845888 atoms
  replicate CPU = 0.301 seconds
Neighbor list info ...
  update: every = 20 steps, delay = 0 steps, check = no
  max neighbors/atom: 2000, page size: 100000
  master list distance cutoff = 11
  ghost atom cutoff = 11
  binsize = 5.5, bins = 290 130 81
  2 neighbor lists, perpetual/occasional/extra = 2 0 0
  (1) pair reaxff, perpetual
      attributes: half, newton off, ghost
      pair build: half/bin/ghost/newtoff
      stencil: full/ghost/bin/3d
      bin: standard
  (2) fix qeq/reax, perpetual, copy from (1)
      attributes: half, newton off
      pair build: copy
      stencil: none
      bin: none
Setting up Verlet run ...
  Unit style    : real
  Current step  : 0
  Time step     : 0.1
Per MPI rank memory allocation (min/avg/max) = 231 | 231.6 | 232.1 Mbytes
   Step          Temp          PotEng         Press          E_vdwl         E_coul         Volume    
         0   300           -113.27833      439.02048     -111.57687     -1.7014647      4.4923072e+08
        10   300.76708     -113.28045      807.30078     -111.57901     -1.7014362      4.4923072e+08
        20   302.42351     -113.28524      1696.9908     -111.58392     -1.7013253      4.4923072e+08
        30   302.57588     -113.28557      4297.9273     -111.58447     -1.7010962      4.4923072e+08
        40   300.62223     -113.27967      6393.385      -111.5789      -1.7007688      4.4923072e+08
        50   297.4189      -113.27008      6471.127      -111.56968     -1.7004027      4.4923072e+08
        60   294.72952     -113.26202      6185.6354     -111.56199     -1.700032       4.4923072e+08
        70   294.66679     -113.26179      6831.2323     -111.56213     -1.6996547      4.4923072e+08
        80   297.78807     -113.27107      8233.8922     -111.5718      -1.699276       4.4923072e+08
        90   301.67958     -113.28267      9372.0489     -111.58373     -1.6989386      4.4923072e+08
       100   302.56511     -113.28525      10370.568     -111.58656     -1.698695       4.4923072e+08
Loop time of 266.941 on 14336 procs for 100 steps with 39845888 atoms

Performance: 0.003 ns/day, 7415.025 hours/ns, 0.375 timesteps/s, 14.927 Matom-step/s
16.3% CPU use with 14336 MPI tasks x 1 OpenMP threads

MPI task timing breakdown:
Section |  min time  |  avg time  |  max time  |%varavg| %total
---------------------------------------------------------------
Pair    | 14.86      | 17.404     | 35.303     |  78.3 |  6.52
Neigh   | 0.2709     | 0.28608    | 0.56323    |   9.8 |  0.11
Comm    | 0.41257    | 9.6705     | 23.308     | 269.4 |  3.62
Output  | 1.4891     | 3.2735     | 3.7805     |  43.1 |  1.23
Modify  | 225.9      | 236.27     | 244.91     |  52.6 | 88.51
Other   |            | 0.03381    |            |       |  0.01

Nlocal:        2779.43 ave        2800 max        2760 min
Histogram: 30 343 1395 2649 2882 2950 2253 1374 407 53
Nghost:        11323.1 ave       11380 max       11275 min
Histogram: 124 957 2633 2542 2768 1244 1506 1798 715 49
Neighs:         929643 ave      936141 max      923700 min
Histogram: 63 491 1699 2829 2965 2708 1980 1249 308 44

Total # of neighbors = 1.3327355e+10
Ave neighs/atom = 334.47253
Neighbor list builds = 5
Dangerous builds not checked
Total wall time: 0:04:38
START OF JOBSPEC
{"resources": [{"type": "node", "count": 256, "with": [{"type": "slot", "count": 56, "with": [{"type": "core", "count": 1}], "label": "task"}]}], "tasks": [{"command": ["/usr/bin/lmp", "-v", "x", "64", "-v", "y", "64", "-v", "z", "32", "-in", "in.reaxff.hns", "-nocite"], "slot": "task", "count": {"per_slot": 1}}], "attributes": {"system": {"duration": 0, "cwd": "/code", "shell": {"options": {"rlimit": {"cpu": -1, "fsize": -1, "data": -1, "stack": 8388608, "core": -1, "nofile": 1048576, "as": -1, "rss": -1, "nproc": -1}, "cpu-affinity": "per-task"}}}, "user": {"study_id": "lammps-reax-256-iter-1"}}, "version": 1}
START OF EVENTLOG
{"timestamp":1724610603.8403018,"name":"init"}
{"timestamp":1724610603.8417304,"name":"starting"}
{"timestamp":1724610603.9942284,"name":"shell.init","context":{"service":"0-shell-fV54kKA7","leader-rank":0,"size":256}}
{"timestamp":1724610604.1649096,"name":"shell.start","context":{"taskmap":{"version":1,"map":[[0,256,56,1]]}}}
{"timestamp":1724610974.582612,"name":"shell.task-exit","context":{"localid":54,"rank":54,"state":"Exited","pid":250,"wait_status":0,"signaled":0,"exitcode":0}}
{"timestamp":1724610975.436343,"name":"complete","context":{"status":0}}
{"timestamp":1724610975.4363842,"name":"done"}

