Start time: 1724887117
WARNING on proc 0: Cannot open log.lammps for writing: Read-only file system (src/lammps.cpp:511)
LAMMPS (17 Apr 2024 - Development - a8687b5)
OMP_NUM_THREADS environment is not set. Defaulting to 1 thread. (src/comm.cpp:98)
  using 1 OpenMP thread(s) per MPI task
Reading data file ...
  triclinic box = (0 0 0) to (22.326 11.1412 13.778966) with tilt (0 -5.02603 0)
  24 by 16 by 16 MPI processor grid
  reading atoms ...
  304 atoms
  reading velocities ...
  304 velocities
  read_data CPU = 0.210 seconds
Replication is creating a 64x64x32 = 131072 times larger system...
  triclinic box = (0 0 0) to (1428.864 713.0368 440.92691) with tilt (0 -160.83296 0)
  32 by 16 by 12 MPI processor grid
  bounding box image = (0 -1 -1) to (0 1 1)
  bounding box extra memory = 0.03 MB
  average # of replicas added to proc = 66.07 out of 131072 (0.05%)
  39845888 atoms
  replicate CPU = 0.155 seconds

CITE-CITE-CITE-CITE-CITE-CITE-CITE-CITE-CITE-CITE-CITE-CITE-CITE

Your simulation uses code contributions which should be cited:
- pair reaxff command: doi:10.1016/j.parco.2011.08.005
- fix qeq/reaxff command: doi:10.1016/j.parco.2011.08.005
The log file lists these citations in BibTeX format.

CITE-CITE-CITE-CITE-CITE-CITE-CITE-CITE-CITE-CITE-CITE-CITE-CITE

Neighbor list info ...
  update: every = 20 steps, delay = 0 steps, check = no
  max neighbors/atom: 2000, page size: 100000
  master list distance cutoff = 11
  ghost atom cutoff = 11
  binsize = 5.5, bins = 290 130 81
  2 neighbor lists, perpetual/occasional/extra = 2 0 0
  (1) pair reaxff, perpetual
      attributes: half, newton off, ghost
      pair build: half/bin/ghost/newtoff
      stencil: full/ghost/bin/3d
      bin: standard
  (2) fix qeq/reax, perpetual, copy from (1)
      attributes: half, newton off
      pair build: copy
      stencil: none
      bin: none
Setting up Verlet run ...
  Unit style    : real
  Current step  : 0
  Time step     : 0.1
Per MPI rank memory allocation (min/avg/max) = 391.9 | 394.3 | 397.1 Mbytes
   Step          Temp          PotEng         Press          E_vdwl         E_coul         Volume    
         0   300           -113.27833      439.02048     -111.57687     -1.7014647      4.4923072e+08
        10   300.76708     -113.28045      807.30078     -111.57901     -1.7014362      4.4923072e+08
        20   302.42351     -113.28524      1696.9908     -111.58392     -1.7013253      4.4923072e+08
        30   302.57588     -113.28557      4297.9273     -111.58447     -1.7010962      4.4923072e+08
        40   300.62223     -113.27967      6393.3861     -111.5789      -1.7007688      4.4923072e+08
        50   297.4189      -113.27008      6471.1386     -111.56968     -1.7004027      4.4923072e+08
        60   294.72952     -113.26202      6185.652      -111.56199     -1.7000319      4.4923072e+08
        70   294.6668      -113.26179      6831.183      -111.56213     -1.6996548      4.4923072e+08
        80   297.78808     -113.27107      8233.8803     -111.5718      -1.699276       4.4923072e+08
        90   301.67957     -113.28267      9372.0675     -111.58373     -1.6989385      4.4923072e+08
       100   302.56511     -113.28525      10370.523     -111.58656     -1.6986951      4.4923072e+08
Loop time of 172.897 on 6144 procs for 100 steps with 39845888 atoms

Performance: 0.005 ns/day, 4802.694 hours/ns, 0.578 timesteps/s, 23.046 Matom-step/s
99.7% CPU use with 6144 MPI tasks x 1 OpenMP threads

MPI task timing breakdown:
Section |  min time  |  avg time  |  max time  |%varavg| %total
---------------------------------------------------------------
Pair    | 38.252     | 42.401     | 47.207     |  14.5 | 24.52
Neigh   | 0.58174    | 0.61862    | 0.74585    |   1.5 |  0.36
Comm    | 0.41931    | 3.7936     | 10.06      |  75.8 |  2.19
Output  | 2.3221     | 2.7322     | 2.9369     |   5.9 |  1.58
Modify  | 119.44     | 123.33     | 125.33     |   9.7 | 71.33
Other   |            | 0.01905    |            |       |  0.01

Nlocal:        6485.33 ave        6526 max        6442 min
Histogram: 109 1649 290 1 87 1218 754 952 1005 79
Nghost:        16964.6 ave       17203 max       16782 min
Histogram: 1963 85 961 1087 0 0 0 0 72 1976
Neighs:    2.03165e+06 ave 2.04424e+06 max 2.02007e+06 min
Histogram: 133 1713 204 155 1125 739 97 903 990 85

Total # of neighbors = 1.2482462e+10
Ave neighs/atom = 313.26852
Neighbor list builds = 5
Dangerous builds not checked
Total wall time: 0:02:56
End time: 1724887305
