LAMMPS (17 Apr 2024 - Development - a8687b5)
KOKKOS mode with Kokkos version 4.3.1 is enabled (src/KOKKOS/kokkos.cpp:72)
  will use up to 8 GPU(s) per node
  using 1 OpenMP thread(s) per MPI task
Reading data file ...
  triclinic box = (0 0 0) to (22.326 11.1412 13.778966) with tilt (0 -5.02603 0)
  4 by 4 by 4 MPI processor grid
  reading atoms ...
  304 atoms
  reading velocities ...
  304 velocities
  read_data CPU = 0.034 seconds
Replication is creating a 64x64x32 = 131072 times larger system...
  triclinic box = (0 0 0) to (1428.864 713.0368 440.92691) with tilt (0 -160.83296 0)
  8 by 4 by 2 MPI processor grid
  bounding box image = (0 -1 -1) to (0 1 1)
  bounding box extra memory = 0.03 MB
  average # of replicas added to proc = 2715.83 out of 131072 (2.07%)
  39845888 atoms
  replicate CPU = 0.148 seconds
Neighbor list info ...
  update: every = 20 steps, delay = 0 steps, check = no
  max neighbors/atom: 2000, page size: 100000
  master list distance cutoff = 11
  ghost atom cutoff = 11
  binsize = 11, bins = 145 65 41
  2 neighbor lists, perpetual/occasional/extra = 2 0 0
  (1) pair reaxff/kk, perpetual
      attributes: half, newton off, ghost, kokkos_device
      pair build: half/bin/newtoff/ghost/kk/device
      stencil: full/ghost/bin/3d
      bin: kk/device
  (2) fix qeq/reax/kk, perpetual
      attributes: full, newton off, kokkos_device
      pair build: full/bin/kk/device
      stencil: full/bin/3d
      bin: kk/device
Setting up Verlet run ...
  Unit style    : real
  Current step  : 0
  Time step     : 0.1
Per MPI rank memory allocation (min/avg/max) = 6784 | 6784 | 6784 Mbytes
   Step          Temp          PotEng         Press          E_vdwl         E_coul         Volume    
         0   300           -113.27833      439.0204      -111.57687     -1.7014647      4.4923072e+08
        10   300.76708     -113.28045      807.30084     -111.57901     -1.7014362      4.4923072e+08
        20   302.42351     -113.28524      1696.9779     -111.58392     -1.7013253      4.4923072e+08
        30   302.57589     -113.28557      4297.9287     -111.58447     -1.7010962      4.4923072e+08
        40   300.62224     -113.27967      6393.324      -111.5789      -1.7007689      4.4923072e+08
        50   297.41891     -113.27008      6471.2024     -111.56968     -1.7004025      4.4923072e+08
        60   294.72953     -113.26202      6185.6734     -111.56199     -1.7000319      4.4923072e+08
        70   294.6668      -113.26179      6831.1714     -111.56213     -1.6996548      4.4923072e+08
        80   297.78809     -113.27107      8233.8939     -111.5718      -1.699276       4.4923072e+08
        90   301.67959     -113.28267      9372.062      -111.58373     -1.6989386      4.4923072e+08
       100   302.56512     -113.28525      10370.601     -111.58656     -1.6986949      4.4923072e+08
Loop time of 51.6792 on 64 procs for 100 steps with 39845888 atoms

Performance: 0.017 ns/day, 1435.533 hours/ns, 1.935 timesteps/s, 77.102 Matom-step/s
82.2% CPU use with 64 MPI tasks x 1 OpenMP threads

MPI task timing breakdown:
Section |  min time  |  avg time  |  max time  |%varavg| %total
---------------------------------------------------------------
Pair    | 8.7288     | 8.8242     | 9.1923     |   3.7 | 17.07
Neigh   | 1.1804     | 1.3584     | 2.2693     |  20.3 |  2.63
Comm    | 4.1239     | 4.532      | 4.7338     |   8.9 |  8.77
Output  | 0.016891   | 0.086062   | 0.20722    |  27.8 |  0.17
Modify  | 35.612     | 36.655     | 37.123     |   5.0 | 70.93
Other   |            | 0.2233     |            |       |  0.43

Nlocal:         622592 ave      622645 max      622556 min
Histogram: 3 7 11 11 12 11 3 3 1 2
Nghost:         245629 ave      245690 max      245561 min
Histogram: 2 2 5 10 9 10 11 8 6 1
Neighs:    1.62762e+08 ave 1.62776e+08 max 1.62754e+08 min
Histogram: 6 11 9 7 10 10 5 3 1 2
FullNghs:  3.05497e+08 ave 3.05521e+08 max 3.05479e+08 min
Histogram: 6 8 9 9 8 11 7 2 2 2

Total # of neighbors = 1.9551784e+10
Ave neighs/atom = 490.68511
Neighbor list builds = 5
Dangerous builds not checked
Total wall time: 0:01:05
START OF JOBSPEC
{"resources": [{"type": "node", "count": 8, "with": [{"type": "slot", "count": 8, "with": [{"type": "core", "count": 1}, {"type": "gpu", "count": 1}], "label": "task"}]}], "tasks": [{"command": ["lmp", "-k", "on", "g", "8", "-sf", "kk", "-pk", "kokkos", "cuda/aware", "off", "newton", "on", "neigh", "half", "-in", "in.reaxff.hns", "-v", "x", "64", "-v", "y", "64", "-v", "z", "32", "-in", "in.reaxff.hns", "-nocite"], "slot": "task", "count": {"per_slot": 1}}], "attributes": {"system": {"duration": 0, "cwd": "/code", "shell": {"options": {"rlimit": {"cpu": -1, "fsize": -1, "data": -1, "stack": 8388608, "core": -1, "nofile": 1048576, "as": -1, "rss": -1, "nproc": -1}, "cpu-affinity": "per-task"}}}, "user": {"study_id": "lammps-reax-8-iter-5"}}, "version": 1}
START OF EVENTLOG
{"timestamp":1724986643.4694498,"name":"init"}
{"timestamp":1724986643.4704638,"name":"starting"}
{"timestamp":1724986643.4877093,"name":"shell.init","context":{"service":"0-shell-f5WjGPC3Z","leader-rank":0,"size":8}}
{"timestamp":1724986643.5070286,"name":"shell.start","context":{"taskmap":{"version":1,"map":[[0,8,8,1]]}}}
{"timestamp":1724986710.655498,"name":"shell.task-exit","context":{"localid":6,"rank":54,"state":"Exited","pid":407,"wait_status":0,"signaled":0,"exitcode":0}}
{"timestamp":1724986711.2435405,"name":"complete","context":{"status":0}}
{"timestamp":1724986711.2435722,"name":"done"}

