LAMMPS (17 Apr 2024 - Development - a8687b5)
OMP_NUM_THREADS environment is not set. Defaulting to 1 thread. (src/comm.cpp:98)
  using 1 OpenMP thread(s) per MPI task
Reading data file ...
  triclinic box = (0 0 0) to (22.326 11.1412 13.778966) with tilt (0 -5.02603 0)
  24 by 16 by 16 MPI processor grid
  reading atoms ...
  304 atoms
  reading velocities ...
  304 velocities
  read_data CPU = 0.066 seconds
Replication is creating a 64x64x32 = 131072 times larger system...
  triclinic box = (0 0 0) to (1428.864 713.0368 440.92691) with tilt (0 -160.83296 0)
  32 by 16 by 12 MPI processor grid
  bounding box image = (0 -1 -1) to (0 1 1)
  bounding box extra memory = 0.03 MB
  average # of replicas added to proc = 66.07 out of 131072 (0.05%)
  39845888 atoms
  replicate CPU = 0.131 seconds
Neighbor list info ...
  update: every = 20 steps, delay = 0 steps, check = no
  max neighbors/atom: 2000, page size: 100000
  master list distance cutoff = 11
  ghost atom cutoff = 11
  binsize = 5.5, bins = 290 130 81
  2 neighbor lists, perpetual/occasional/extra = 2 0 0
  (1) pair reaxff, perpetual
      attributes: half, newton off, ghost
      pair build: half/bin/ghost/newtoff
      stencil: full/ghost/bin/3d
      bin: standard
  (2) fix qeq/reax, perpetual, copy from (1)
      attributes: half, newton off
      pair build: copy
      stencil: none
      bin: none
Setting up Verlet run ...
  Unit style    : real
  Current step  : 0
  Time step     : 0.1
Per MPI rank memory allocation (min/avg/max) = 391.9 | 394.3 | 397.1 Mbytes
   Step          Temp          PotEng         Press          E_vdwl         E_coul         Volume    
         0   300           -113.27833      439.02048     -111.57687     -1.7014647      4.4923072e+08
        10   300.76708     -113.28045      807.30078     -111.57901     -1.7014362      4.4923072e+08
        20   302.42351     -113.28524      1696.9908     -111.58392     -1.7013253      4.4923072e+08
        30   302.57588     -113.28557      4297.9273     -111.58447     -1.7010962      4.4923072e+08
        40   300.62224     -113.27967      6393.3506     -111.5789      -1.7007689      4.4923072e+08
        50   297.4189      -113.27008      6471.1835     -111.56968     -1.7004026      4.4923072e+08
        60   294.72953     -113.26202      6185.6787     -111.56199     -1.7000319      4.4923072e+08
        70   294.6668      -113.26179      6831.2415     -111.56213     -1.6996546      4.4923072e+08
        80   297.78808     -113.27107      8233.8268     -111.5718      -1.6992761      4.4923072e+08
        90   301.67958     -113.28267      9372.0437     -111.58373     -1.6989386      4.4923072e+08
       100   302.56511     -113.28525      10370.551     -111.58656     -1.698695       4.4923072e+08
Loop time of 134.513 on 6144 procs for 100 steps with 39845888 atoms

Performance: 0.006 ns/day, 3736.475 hours/ns, 0.743 timesteps/s, 29.622 Matom-step/s
99.9% CPU use with 6144 MPI tasks x 1 OpenMP threads

MPI task timing breakdown:
Section |  min time  |  avg time  |  max time  |%varavg| %total
---------------------------------------------------------------
Pair    | 38.475     | 42.323     | 61.186     |  14.3 | 31.46
Neigh   | 0.5762     | 0.61569    | 0.70921    |   1.4 |  0.46
Comm    | 0.089255   | 3.2499     | 21.799     | 129.8 |  2.42
Output  | 0.44488    | 2.1048     | 2.2688     |   8.8 |  1.56
Modify  | 72.157     | 86.209     | 87.748     |  22.5 | 64.09
Other   |            | 0.01096    |            |       |  0.01

Nlocal:        6485.33 ave        6526 max        6442 min
Histogram: 109 1649 290 1 87 1218 754 952 1005 79
Nghost:        16964.6 ave       17203 max       16782 min
Histogram: 1963 85 961 1087 0 0 0 0 72 1976
Neighs:    2.03165e+06 ave 2.04424e+06 max 2.02007e+06 min
Histogram: 133 1713 204 155 1125 739 97 903 990 85

Total # of neighbors = 1.2482463e+10
Ave neighs/atom = 313.26852
Neighbor list builds = 5
Dangerous builds not checked
Total wall time: 0:02:17
START OF JOBSPEC
{"resources": [{"type": "node", "count": 64, "with": [{"type": "slot", "count": 96, "with": [{"type": "core", "count": 1}], "label": "task"}]}], "tasks": [{"command": ["/usr/bin/lmp", "-v", "x", "64", "-v", "y", "64", "-v", "z", "32", "-in", "in.reaxff.hns", "-nocite"], "slot": "task", "count": {"per_slot": 1}}], "attributes": {"system": {"duration": 0, "cwd": "/code", "shell": {"options": {"rlimit": {"cpu": -1, "fsize": -1, "data": -1, "stack": 8388608, "core": -1, "nofile": 1048576, "as": -1, "rss": -1, "nproc": -1}, "cpu-affinity": "per-task"}}}}, "version": 1}
START OF EVENTLOG
{"timestamp":1724880620.1687248,"name":"init"}
{"timestamp":1724880620.1696048,"name":"starting"}
{"timestamp":1724880620.2062981,"name":"shell.init","context":{"service":"0-shell-f8aurinJT","leader-rank":0,"size":64}}
{"timestamp":1724880620.5895467,"name":"shell.start","context":{"taskmap":{"version":1,"map":[[0,64,96,1]]}}}
{"timestamp":1724880850.1253576,"name":"shell.task-exit","context":{"localid":93,"rank":5181,"state":"Exited","pid":1789,"wait_status":0,"signaled":0,"exitcode":0}}
{"timestamp":1724880850.5596745,"name":"complete","context":{"status":0}}
{"timestamp":1724880850.5597134,"name":"done"}

