LAMMPS (17 Apr 2024 - Development - a8687b5)
OMP_NUM_THREADS environment is not set. Defaulting to 1 thread. (src/comm.cpp:98)
  using 1 OpenMP thread(s) per MPI task
Reading data file ...
  triclinic box = (0 0 0) to (22.326 11.1412 13.778966) with tilt (0 -5.02603 0)
  16 by 8 by 14 MPI processor grid
  reading atoms ...
  304 atoms
  reading velocities ...
  304 velocities
  read_data CPU = 0.137 seconds
Replication is creating a 64x64x32 = 131072 times larger system...
  triclinic box = (0 0 0) to (1428.864 713.0368 440.92691) with tilt (0 -160.83296 0)
  16 by 14 by 8 MPI processor grid
  bounding box image = (0 -1 -1) to (0 1 1)
  bounding box extra memory = 0.03 MB
  average # of replicas added to proc = 184.80 out of 131072 (0.14%)
  39845888 atoms
  replicate CPU = 0.169 seconds
Neighbor list info ...
  update: every = 20 steps, delay = 0 steps, check = no
  max neighbors/atom: 2000, page size: 100000
  master list distance cutoff = 11
  ghost atom cutoff = 11
  binsize = 5.5, bins = 290 130 81
  2 neighbor lists, perpetual/occasional/extra = 2 0 0
  (1) pair reaxff, perpetual
      attributes: half, newton off, ghost
      pair build: half/bin/ghost/newtoff
      stencil: full/ghost/bin/3d
      bin: standard
  (2) fix qeq/reax, perpetual, copy from (1)
      attributes: half, newton off
      pair build: copy
      stencil: none
      bin: none
Setting up Verlet run ...
  Unit style    : real
  Current step  : 0
  Time step     : 0.1
Per MPI rank memory allocation (min/avg/max) = 962.9 | 964.1 | 964.9 Mbytes
   Step          Temp          PotEng         Press          E_vdwl         E_coul         Volume    
         0   300           -113.27833      439.02048     -111.57687     -1.7014647      4.4923072e+08
        10   300.76708     -113.28045      807.30078     -111.57901     -1.7014362      4.4923072e+08
        20   302.42351     -113.28524      1696.9908     -111.58392     -1.7013253      4.4923072e+08
        30   302.57588     -113.28557      4297.9273     -111.58447     -1.7010962      4.4923072e+08
        40   300.62223     -113.27967      6393.3853     -111.5789      -1.7007688      4.4923072e+08
        50   297.4189      -113.27008      6471.1365     -111.56968     -1.7004027      4.4923072e+08
        60   294.72952     -113.26202      6185.6715     -111.56199     -1.7000319      4.4923072e+08
        70   294.6668      -113.26179      6831.2217     -111.56213     -1.6996547      4.4923072e+08
        80   297.78807     -113.27107      8233.9175     -111.5718      -1.6992759      4.4923072e+08
        90   301.67957     -113.28267      9372.0352     -111.58373     -1.6989386      4.4923072e+08
       100   302.56511     -113.28525      10370.592     -111.58656     -1.698695       4.4923072e+08
Loop time of 273.581 on 1792 procs for 100 steps with 39845888 atoms

Performance: 0.003 ns/day, 7599.465 hours/ns, 0.366 timesteps/s, 14.565 Matom-step/s
84.7% CPU use with 1792 MPI tasks x 1 OpenMP threads

MPI task timing breakdown:
Section |  min time  |  avg time  |  max time  |%varavg| %total
---------------------------------------------------------------
Pair    | 156.2      | 172        | 188.25     |  31.0 | 62.87
Neigh   | 1.2252     | 1.2491     | 1.4061     |   0.9 |  0.46
Comm    | 0.88034    | 14.354     | 32.911     | 120.9 |  5.25
Output  | 0.047181   | 0.76184    | 1.5564     |  52.1 |  0.28
Modify  | 83.146     | 85.207     | 89.81      |  21.0 | 31.14
Other   |            | 0.008077   |            |       |  0.00

Nlocal:        22235.4 ave       22304 max       22193 min
Histogram: 65 284 406 401 238 132 25 78 134 29
Nghost:          33754 ave       33816 max       33699 min
Histogram: 37 101 165 278 391 396 276 118 25 5
Neighs:    6.51316e+06 ave 6.53187e+06 max 6.50023e+06 min
Histogram: 55 248 357 330 279 190 90 89 125 29

Total # of neighbors = 1.1671586e+10
Ave neighs/atom = 292.9182
Neighbor list builds = 5
Dangerous builds not checked
Total wall time: 0:04:39
START OF JOBSPEC
{"resources": [{"type": "node", "count": 32, "with": [{"type": "slot", "count": 56, "with": [{"type": "core", "count": 1}], "label": "task"}]}], "tasks": [{"command": ["singularity", "exec", "/opt/containers/metric-lammps-cpu_rocky-8.sif", "/usr/bin/lmp", "-v", "x", "64", "-v", "y", "64", "-v", "z", "32", "-in", "in.reaxff.hns", "-nocite"], "slot": "task", "count": {"per_slot": 1}}], "attributes": {"system": {"duration": 0, "cwd": "/home/sochat1_llnl_gov/lammps-data", "shell": {"options": {"rlimit": {"cpu": -1, "fsize": -1, "data": -1, "stack": 8388608, "core": 0, "nofile": 262144, "as": -1, "rss": -1, "nproc": 1803560}, "cpu-affinity": "per-task"}}}, "user": {"study_id": "lammps-reax-32-iter-1"}}, "version": 1}
START OF EVENTLOG
{"timestamp":1724699979.8083057,"name":"init"}
{"timestamp":1724699979.8089521,"name":"starting"}
{"timestamp":1724699979.861522,"name":"shell.init","context":{"service":"1356918789-shell-f2T7LjmwM","leader-rank":0,"size":32}}
{"timestamp":1724699980.0428739,"name":"shell.start","context":{"taskmap":{"version":1,"map":[[0,32,56,1]]}}}
{"timestamp":1724700263.9231548,"name":"shell.task-exit","context":{"localid":4,"rank":564,"state":"Exited","pid":3682,"wait_status":0,"signaled":0,"exitcode":0}}
{"timestamp":1724700264.0607584,"name":"complete","context":{"status":0}}
{"timestamp":1724700264.0607965,"name":"done"}

