Start time: 1724879908
WARNING on proc 0: Cannot open log.lammps for writing: Read-only file system (src/lammps.cpp:511)
LAMMPS (17 Apr 2024 - Development - a8687b5)
OMP_NUM_THREADS environment is not set. Defaulting to 1 thread. (src/comm.cpp:98)
  using 1 OpenMP thread(s) per MPI task
Reading data file ...
  triclinic box = (0 0 0) to (22.326 11.1412 13.778966) with tilt (0 -5.02603 0)
  16 by 12 by 16 MPI processor grid
  reading atoms ...
  304 atoms
  reading velocities ...
  304 velocities
  read_data CPU = 0.145 seconds
Replication is creating a 64x64x32 = 131072 times larger system...
  triclinic box = (0 0 0) to (1428.864 713.0368 440.92691) with tilt (0 -160.83296 0)
  24 by 16 by 8 MPI processor grid
  bounding box image = (0 -1 -1) to (0 1 1)
  bounding box extra memory = 0.03 MB
  average # of replicas added to proc = 124.34 out of 131072 (0.09%)
  39845888 atoms
  replicate CPU = 0.146 seconds

CITE-CITE-CITE-CITE-CITE-CITE-CITE-CITE-CITE-CITE-CITE-CITE-CITE

Your simulation uses code contributions which should be cited:
- pair reaxff command: doi:10.1016/j.parco.2011.08.005
- fix qeq/reaxff command: doi:10.1016/j.parco.2011.08.005
The log file lists these citations in BibTeX format.

CITE-CITE-CITE-CITE-CITE-CITE-CITE-CITE-CITE-CITE-CITE-CITE-CITE

Neighbor list info ...
  update: every = 20 steps, delay = 0 steps, check = no
  max neighbors/atom: 2000, page size: 100000
  master list distance cutoff = 11
  ghost atom cutoff = 11
  binsize = 5.5, bins = 290 130 81
  2 neighbor lists, perpetual/occasional/extra = 2 0 0
  (1) pair reaxff, perpetual
      attributes: half, newton off, ghost
      pair build: half/bin/ghost/newtoff
      stencil: full/ghost/bin/3d
      bin: standard
  (2) fix qeq/reax, perpetual, copy from (1)
      attributes: half, newton off
      pair build: copy
      stencil: none
      bin: none
Setting up Verlet run ...
  Unit style    : real
  Current step  : 0
  Time step     : 0.1
Per MPI rank memory allocation (min/avg/max) = 632.8 | 640 | 644.5 Mbytes
   Step          Temp          PotEng         Press          E_vdwl         E_coul         Volume    
         0   300           -113.27833      439.02048     -111.57687     -1.7014647      4.4923072e+08
        10   300.76708     -113.28045      807.30078     -111.57901     -1.7014362      4.4923072e+08
        20   302.42351     -113.28524      1696.9908     -111.58392     -1.7013253      4.4923072e+08
        30   302.57588     -113.28557      4297.9273     -111.58447     -1.7010962      4.4923072e+08
        40   300.62223     -113.27967      6393.3854     -111.5789      -1.7007688      4.4923072e+08
        50   297.4189      -113.27008      6471.1191     -111.56968     -1.7004027      4.4923072e+08
        60   294.72952     -113.26202      6185.68       -111.56199     -1.7000319      4.4923072e+08
        70   294.6668      -113.26179      6831.2077     -111.56213     -1.6996547      4.4923072e+08
        80   297.78808     -113.27107      8233.8742     -111.5718      -1.699276       4.4923072e+08
        90   301.67958     -113.28267      9372.0722     -111.58373     -1.6989385      4.4923072e+08
       100   302.56511     -113.28525      10370.558     -111.58656     -1.698695       4.4923072e+08
Loop time of 191.616 on 3072 procs for 100 steps with 39845888 atoms

Performance: 0.005 ns/day, 5322.679 hours/ns, 0.522 timesteps/s, 20.795 Matom-step/s
99.7% CPU use with 3072 MPI tasks x 1 OpenMP threads

MPI task timing breakdown:
Section |  min time  |  avg time  |  max time  |%varavg| %total
---------------------------------------------------------------
Pair    | 71.157     | 79.327     | 87.493     |  25.0 | 41.40
Neigh   | 0.94059    | 1.0002     | 1.158      |   2.2 |  0.52
Comm    | 0.40017    | 6.4641     | 17.566     | 105.1 |  3.37
Output  | 1.6468     | 2.2858     | 2.625      |  10.4 |  1.19
Modify  | 98.673     | 102.53     | 105.56     |  12.5 | 53.51
Other   |            | 0.006129   |            |       |  0.00

Nlocal:        12970.7 ave       13089 max       12786 min
Histogram: 758 266 0 0 0 0 0 430 623 995
Nghost:        24573.6 ave       24774 max       24280 min
Histogram: 852 172 0 0 0 0 0 935 156 957
Neighs:    3.89485e+06 ave 3.92791e+06 max 3.84159e+06 min
Histogram: 585 439 0 0 0 0 0 261 786 1001

Total # of neighbors = 1.1964972e+10
Ave neighs/atom = 300.28122
Neighbor list builds = 5
Dangerous builds not checked
Total wall time: 0:03:15
End time: 1724880112
