LAMMPS (17 Apr 2024 - Development - a8687b5)
OMP_NUM_THREADS environment is not set. Defaulting to 1 thread. (src/comm.cpp:98)
  using 1 OpenMP thread(s) per MPI task
Reading data file ...
  triclinic box = (0 0 0) to (22.326 11.1412 13.778966) with tilt (0 -5.02603 0)
  32 by 24 by 32 MPI processor grid
  reading atoms ...
  304 atoms
  reading velocities ...
  304 velocities
  read_data CPU = 0.207 seconds
Replication is creating a 64x64x32 = 131072 times larger system...
  triclinic box = (0 0 0) to (1428.864 713.0368 440.92691) with tilt (0 -160.83296 0)
  48 by 32 by 16 MPI processor grid
  bounding box image = (0 -1 -1) to (0 1 1)
  bounding box extra memory = 0.03 MB
  average # of replicas added to proc = 32.89 out of 131072 (0.03%)
  39845888 atoms
  replicate CPU = 0.144 seconds
Neighbor list info ...
  update: every = 20 steps, delay = 0 steps, check = no
  max neighbors/atom: 2000, page size: 100000
  master list distance cutoff = 11
  ghost atom cutoff = 11
  binsize = 5.5, bins = 290 130 81
  2 neighbor lists, perpetual/occasional/extra = 2 0 0
  (1) pair reaxff, perpetual
      attributes: half, newton off, ghost
      pair build: half/bin/ghost/newtoff
      stencil: full/ghost/bin/3d
      bin: standard
  (2) fix qeq/reax, perpetual, copy from (1)
      attributes: half, newton off
      pair build: copy
      stencil: none
      bin: none
Setting up Verlet run ...
  Unit style    : real
  Current step  : 0
  Time step     : 0.1
Per MPI rank memory allocation (min/avg/max) = 166.2 | 167.8 | 170.5 Mbytes
   Step          Temp          PotEng         Press          E_vdwl         E_coul         Volume    
         0   300           -113.27833      439.02048     -111.57687     -1.7014647      4.4923072e+08
        10   300.76708     -113.28045      807.30077     -111.57901     -1.7014362      4.4923072e+08
        20   302.42351     -113.28524      1696.9908     -111.58392     -1.7013253      4.4923072e+08
        30   302.57588     -113.28557      4297.9273     -111.58447     -1.7010962      4.4923072e+08
        40   300.62224     -113.27967      6393.3252     -111.5789      -1.7007689      4.4923072e+08
        50   297.41891     -113.27008      6471.2134     -111.56968     -1.7004025      4.4923072e+08
        60   294.72952     -113.26202      6185.6152     -111.56199     -1.700032       4.4923072e+08
        70   294.6668      -113.26179      6831.2026     -111.56213     -1.6996547      4.4923072e+08
        80   297.78809     -113.27107      8233.872      -111.5718      -1.699276       4.4923072e+08
        90   301.67959     -113.28267      9372.0526     -111.58373     -1.6989386      4.4923072e+08
       100   302.56511     -113.28525      10370.581     -111.58656     -1.698695       4.4923072e+08
Loop time of 53.5484 on 24576 procs for 100 steps with 39845888 atoms

Performance: 0.016 ns/day, 1487.454 hours/ns, 1.867 timesteps/s, 74.411 Matom-step/s
99.7% CPU use with 24576 MPI tasks x 1 OpenMP threads

MPI task timing breakdown:
Section |  min time  |  avg time  |  max time  |%varavg| %total
---------------------------------------------------------------
Pair    | 11.396     | 12.937     | 15.802     |  10.7 | 24.16
Neigh   | 0.18503    | 0.19921    | 0.22666    |   0.8 |  0.37
Comm    | 0.15445    | 1.2802     | 3.9815     |  44.6 |  2.39
Output  | 0.45407    | 0.6325     | 0.69047    |   3.3 |  1.18
Modify  | 36.863     | 38.495     | 38.936     |   4.5 | 71.89
Other   |            | 0.004033   |            |       |  0.01

Nlocal:        1621.33 ave        1673 max        1585 min
Histogram: 1494 7414 6829 647 0 0 0 349 6717 1126
Nghost:        8636.03 ave        8813 max        8524 min
Histogram: 5794 10029 561 0 0 0 0 0 2617 5575
Neighs:         562784 ave      578427 max      550985 min
Histogram: 937 6809 6178 2443 17 0 0 302 6538 1352

Total # of neighbors = 1.3830972e+10
Ave neighs/atom = 347.11164
Neighbor list builds = 5
Dangerous builds not checked
Total wall time: 0:00:56
START OF JOBSPEC
{"resources": [{"type": "node", "count": 256, "with": [{"type": "slot", "count": 96, "with": [{"type": "core", "count": 1}], "label": "task"}]}], "tasks": [{"command": ["/usr/bin/lmp", "-v", "x", "64", "-v", "y", "64", "-v", "z", "32", "-in", "in.reaxff.hns", "-nocite"], "slot": "task", "count": {"per_slot": 1}}], "attributes": {"system": {"duration": 0, "cwd": "/code", "shell": {"options": {"rlimit": {"cpu": -1, "fsize": -1, "data": -1, "stack": 10485760, "core": -1, "nofile": 1048576, "as": -1, "rss": -1, "nproc": -1}, "cpu-affinity": "per-task"}}}, "user": {"study_id": "lammps-reax-256-iter-4"}}, "version": 1}
START OF EVENTLOG
{"timestamp":1725160296.1746438,"name":"init"}
{"timestamp":1725160296.1760941,"name":"starting"}
{"timestamp":1725160296.3052297,"name":"shell.init","context":{"service":"0-shell-f66yX2zAj","leader-rank":0,"size":256}}
{"timestamp":1725160296.6192024,"name":"shell.start","context":{"taskmap":{"version":1,"map":[[0,256,96,1]]}}}
{"timestamp":1725160493.2944195,"name":"shell.task-exit","context":{"localid":50,"rank":15794,"state":"Exited","pid":745,"wait_status":0,"signaled":0,"exitcode":0}}
{"timestamp":1725160495.0411489,"name":"complete","context":{"status":0}}
{"timestamp":1725160495.0411911,"name":"done"}

