995.023s: job.exception type=cancel severity=0 interrupted by ctrl-C
996.943s: job.exception type=cancel severity=0 interrupted by ctrl-C
997.191s: job.exception type=cancel severity=0 interrupted by ctrl-C
997.456s: job.exception type=cancel severity=0 interrupted by ctrl-C
flux-job: task(s) exited with exit code 143
LAMMPS (17 Apr 2024 - Development - a8687b5)
KOKKOS mode with Kokkos version 4.3.1 is enabled (src/KOKKOS/kokkos.cpp:72)
  using 1 OpenMP thread(s) per MPI task
Lattice spacing in x,y,z = 3.1803 3.1803 3.1803
Created orthogonal box = (0 0 0) to (12.7212 12.7212 12.7212)
  16 by 28 by 32 MPI processor grid
Created 128 atoms
  using lattice units in orthogonal box = (0 0 0) to (12.7212 12.7212 12.7212)
  create_atoms CPU = 1.339 seconds
SNAP Element = W, Radius 0.5, Weight 1
SNAP keyword rcutfac 4.87644
SNAP keyword twojmax 8
SNAP keyword rfac0 0.99363
SNAP keyword rmin0 0
SNAP keyword bzeroflag 1
SNAP keyword quadraticflag 0
Displacing atoms ...
Neighbor list info ...
  update: every = 1 steps, delay = 0 steps, check = yes
  max neighbors/atom: 2000, page size: 100000
  master list distance cutoff = 4.87644
  ghost atom cutoff = 4.87644
  binsize = 2.43822, bins = 6 6 6
  2 neighbor lists, perpetual/occasional/extra = 2 0 0
  (1) pair zbl, perpetual
      attributes: half, newton on, kokkos_device, cut 4.8
      pair build: half/bin/newton/kk/device
      stencil: half/bin/3d
      bin: kk/device
  (2) pair snap, perpetual
      attributes: full, newton on
      pair build: full/bin/atomonly
      stencil: full/bin/3d
      bin: standard
Setting up Verlet run ...
  Unit style    : metal
  Current step  : 0
  Time step     : 0.0005
Per MPI rank memory allocation (min/avg/max) = 3.448 | 3.474 | 6.19 Mbytes
   Step          Temp          E_pair         E_mol          TotEng         Press     
         0   800           -8.9091051      0             -8.8065049      5048.8849    
        50   619.76285     -8.7855124      0             -8.7060277      33744.792    
       100   861.8981      -8.3859367      0             -8.275398       138923.17    
       150   1059.8657     -7.8446695      0             -7.7087414      280662.17    
       200   1604.6568     -7.3777179      0             -7.1719202      409919.99    
       250   1582.1579     -6.6672849      0             -6.4643727      596823.93    
       300   1758.548      -5.8253731      0             -5.5998388      821392.93    
       350   2065.9472     -5.2628072      0             -4.9978488      974934.87    
       400   2327.9435     -4.0757308      0             -3.7771713      1287175      
       450   2683.1818     -3.4936398      0             -3.149521       1445511.1    
       500   2686.5234     -3.1757473      0             -2.8311998      1524793.9    
       550   2273.6769     -3.4749944      0             -3.1833947      1441457.5    
       600   2630.6765     -3.1943517      0             -2.8569666      1528573      
       650   2930.9596     -2.681338       0             -2.3054415      1659257.8    
       700   2698.8647     -2.3167503      0             -1.9706201      1751162.3    
       750   2809.8646     -1.6119214      0             -1.2515555      1939923.4    
       800   2764.7822     -1.4363225      0             -1.0817384      1987490.2    
       850   2672.0312     -1.2953186      0             -0.95262983     2030807.2    
       900   2786.119      -1.2985351      0             -0.9412145      2028621.2    
       950   2854.6295     -1.2723208      0             -0.90621366     2028312.9    
      1000   3149.9443     -0.96591281     0             -0.5619315      2112656.3    
      1050   2940.499      -1.2752783      0             -0.89815843     2036867.5    
      1100   2684.7976     -1.3363874      0             -0.99206127     2019436.3    
      1150   2823.6184     -0.61698773     0             -0.25485782     2203478.9    
      1200   2667.5945     -1.5928706      0             -1.2507508      1952123.8    
      1250   3097.8498     -1.3246043      0             -0.92730413     2023943.7    
      1300   2582.2113     -1.438538       0             -1.1073686      1988790.1    
      1350   2653.0078     -1.117287       0             -0.77703792     2070678.8    
      1400   3095.9171     -1.5241051      0             -1.1270528      1982083.6    
      1450   2805.0809     -0.99439249     0             -0.63464001     2116726.7    
997.417s: flux-shell[0]:  WARN: exception: shell rank 35 (on flux-sample-35): Terminated
997.433s: flux-shell[0]:  WARN: exception: shell rank 3 (on flux-sample-3): Terminated
997.433s: flux-shell[0]:  WARN: exception: shell rank 31 (on flux-sample-31): Terminated
      1500   2651--------------------------------------------------------------------------
WARNING: Open MPI failed to TCP connect to a peer MPI process.  This
should not happen.

Your Open MPI job may now hang or fail.

  Local host: flux-sample-61
  PID:        175
  Message:    connect() to 10.72.128.8:1079 failed
  Error:      Operation now in progress (115)
--------------------------------------------------------------------------
997.560s: flux-shell[0]:  WARN: exception: shell rank 4 (on flux-sample-4): Terminated
997.566s: flux-shell[0]:  WARN: exception: shell rank 5 (on flux-sample-5): Terminated
997.566s: flux-shell[0]:  WARN: exception: shell rank 34 (on flux-sample-34): Terminated
997.566s: flux-shell[0]:  WARN: exception: shell rank 55 (on flux-sample-55): Terminated
997.581s: flux-shell[0]:  WARN: exception: shell rank 8 (on flux-sample-8): Terminated
997.581s: flux-shell[0]:  WARN: exception: shell rank 9 (on flux-sample-9): Terminated
997.581s: flux-shell[0]:  WARN: exception: shell rank 10 (on flux-sample-10): Terminated
997.581s: flux-shell[0]:  WARN: exception: shell rank 11 (on flux-sample-11): Terminated
997.581s: flux-shell[0]:  WARN: exception: shell rank 14 (on flux-sample-14): Terminated
997.581s: flux-shell[0]:  WARN: exception: shell rank 15 (on flux-sample-15): Terminated
997.581s: flux-shell[0]:  WARN: exception: shell rank 44 (on flux-sample-44): Terminated
997.581s: flux-shell[0]:  WARN: exception: shell rank 46 (on flux-sample-46): Terminated
997.581s: flux-shell[0]:  WARN: exception: shell rank 52 (on flux-sample-52): Terminated
997.581s: flux-shell[0]:  WARN: exception: shell rank 54 (on flux-sample-54): Terminated
997.597s: flux-shell[0]:  WARN: exception: shell rank 1 (on flux-sample-1): Terminated
997.597s: flux-shell[0]:  WARN: exception: shell rank 6 (on flux-sample-6): Terminated
997.597s: flux-shell[0]:  WARN: exception: shell rank 7 (on flux-sample-7): Terminated
997.597s: flux-shell[0]:  WARN: exception: shell rank 13 (on flux-sample-13): Terminated
997.597s: flux-shell[0]:  WARN: exception: shell rank 16 (on flux-sample-16): Terminated
997.597s: flux-shell[0]:  WARN: exception: shell rank 18 (on flux-sample-18): Terminated
997.597s: flux-shell[0]:  WARN: exception: shell rank 19 (on flux-sample-19): Terminated
997.597s: flux-shell[0]:  WARN: exception: shell rank 20 (on flux-sample-20): Terminated
997.597s: flux-shell[0]:  WARN: exception: shell rank 23 (on flux-sample-23): Terminated
997.597s: flux-shell[0]:  WARN: exception: shell rank 25 (on flux-sample-25): Terminated
997.597s: flux-shell[0]:  WARN: exception: shell rank 26 (on flux-sample-26): Terminated
997.598s: flux-shell[0]:  WARN: exception: shell rank 27 (on flux-sample-27): Terminated
997.598s: flux-shell[0]:  WARN: exception: shell rank 33 (on flux-sample-33): Terminated
997.598s: flux-shell[0]:  WARN: exception: shell rank 37 (on flux-sample-37): Terminated
997.598s: flux-shell[0]:  WARN: exception: shell rank 39 (on flux-sample-39): Terminated
997.598s: flux-shell[0]:  WARN: exception: shell rank 40 (on flux-sample-40): Terminated
997.598s: flux-shell[0]:  WARN: exception: shell rank 41 (on flux-sample-41): Terminated
997.598s: flux-shell[0]:  WARN: exception: shell rank 48 (on flux-sample-48): Terminated
997.598s: flux-shell[0]:  WARN: exception: shell rank 50 (on flux-sample-50): Terminated
997.598s: flux-shell[0]:  WARN: exception: shell rank 51 (on flux-sample-51): Terminated
997.598s: flux-shell[0]:  WARN: exception: shell rank 63 (on flux-sample-63): Terminated
997.610s: flux-shell[0]:  WARN: exception: shell rank 2 (on flux-sample-2): Terminated
997.610s: flux-shell[0]:  WARN: exception: shell rank 29 (on flux-sample-29): Terminated
997.610s: flux-shell[0]:  WARN: exception: shell rank 38 (on flux-sample-38): Terminated
997.610s: flux-shell[0]:  WARN: exception: shell rank 43 (on flux-sample-43): Terminated
997.610s: flux-shell[0]:  WARN: exception: shell rank 45 (on flux-sample-45): Terminated
997.610s: flux-shell[0]:  WARN: exception: shell rank 47 (on flux-sample-47): Terminated
997.610s: flux-shell[0]:  WARN: exception: shell rank 49 (on flux-sample-49): Terminated
997.610s: flux-shell[0]:  WARN: exception: shell rank 56 (on flux-sample-56): Terminated
997.610s: flux-shell[0]:  WARN: exception: shell rank 58 (on flux-sample-58): Terminated
997.610s: flux-shell[0]:  WARN: exception: shell rank 60 (on flux-sample-60): Terminated
997.625s: flux-shell[0]:  WARN: exception: shell rank 12 (on flux-sample-12): Terminated
997.625s: flux-shell[0]:  WARN: exception: shell rank 22 (on flux-sample-22): Terminated
997.625s: flux-shell[0]:  WARN: exception: shell rank 24 (on flux-sample-24): Terminated
997.625s: flux-shell[0]:  WARN: exception: shell rank 28 (on flux-sample-28): Terminated
997.625s: flux-shell[0]:  WARN: exception: shell rank 32 (on flux-sample-32): Terminated
997.626s: flux-shell[0]:  WARN: exception: shell rank 36 (on flux-sample-36): Terminated
997.626s: flux-shell[0]:  WARN: exception: shell rank 53 (on flux-sample-53): Terminated
997.626s: flux-shell[0]:  WARN: exception: shell rank 59 (on flux-sample-59): Terminated
997.636s: flux-shell[0]:  WARN: exception: shell rank 17 (on flux-sample-17): Terminated
997.636s: flux-shell[0]:  WARN: exception: shell rank 42 (on flux-sample-42): Terminated
997.636s: flux-shell[0]:  WARN: exception: shell rank 57 (on flux-sample-57): Terminated
997.718s: flux-shell[0]:  WARN: exception: shell rank 21 (on flux-sample-21): Terminated
997.719s: flux-shell[0]:  WARN: exception: shell rank 30 (on flux-sample-30): Terminated
997.719s: flux-shell[0]:  WARN: exception: shell rank 62 (on flux-sample-62): Terminated
997.719s: flux-shell[0]:  WARN: exception: shell rank 61 (on flux-sample-61): Terminated
997.719s: flux-shell[0]:  WARN: exception: shell rank 145 (on flux-sample-145): Terminated
997.719s: flux-shell[0]:  WARN: exception: shell rank 73 (on flux-sample-73): Terminated
997.720s: flux-shell[0]:  WARN: exception: shell rank 110 (on flux-sample-110): Terminated
997.720s: flux-shell[0]:  WARN: exception: shell rank 122 (on flux-sample-122): Terminated
997.720s: flux-shell[0]:  WARN: exception: shell rank 131 (on flux-sample-131): Terminated
997.720s: flux-shell[0]:  WARN: exception: shell rank 132 (on flux-sample-132): Terminated
997.720s: flux-shell[0]:  WARN: exception: shell rank 144 (on flux-sample-144): Terminated
997.720s: flux-shell[0]:  WARN: exception: shell rank 146 (on flux-sample-146): Terminated
997.720s: flux-shell[0]:  WARN: exception: shell rank 150 (on flux-sample-150): Terminated
997.720s: flux-shell[0]:  WARN: exception: shell rank 152 (on flux-sample-152): Terminated
997.720s: flux-shell[0]:  WARN: exception: shell rank 155 (on flux-sample-155): Terminated
997.720s: flux-shell[0]:  WARN: exception: shell rank 157 (on flux-sample-157): Terminated
997.720s: flux-shell[0]:  WARN: exception: shell rank 167 (on flux-sample-167): Terminated
997.720s: flux-shell[0]:  WARN: exception: shell rank 168 (on flux-sample-168): Terminated
997.720s: flux-shell[0]:  WARN: exception: shell rank 173 (on flux-sample-173): Terminated
997.720s: flux-shell[0]:  WARN: exception: shell rank 177 (on flux-sample-177): Terminated
997.720s: flux-shell[0]:  WARN: exception: shell rank 179 (on flux-sample-179): Terminated
997.720s: flux-shell[0]:  WARN: exception: shell rank 182 (on flux-sample-182): Terminated
997.720s: flux-shell[0]:  WARN: exception: shell rank 183 (on flux-sample-183): Terminated
997.720s: flux-shell[0]:  WARN: exception: shell rank 190 (on flux-sample-190): Terminated
997.720s: flux-shell[0]:  WARN: exception: shell rank 199 (on flux-sample-199): Terminated
997.721s: flux-shell[0]:  WARN: exception: shell rank 225 (on flux-sample-225): Terminated
997.721s: flux-shell[0]:  WARN: exception: shell rank 65 (on flux-sample-65): Terminated
997.721s: flux-shell[0]:  WARN: exception: shell rank 66 (on flux-sample-66): Terminated
997.721s: flux-shell[0]:  WARN: exception: shell rank 67 (on flux-sample-67): Terminated
997.721s: flux-shell[0]:  WARN: exception: shell rank 69 (on flux-sample-69): Terminated
997.721s: flux-shell[0]:  WARN: exception: shell rank 74 (on flux-sample-74): Terminated
997.721s: flux-shell[0]:  WARN: exception: shell rank 87 (on flux-sample-87): Terminated
997.721s: flux-shell[0]:  WARN: exception: shell rank 88 (on flux-sample-88): Terminated
997.721s: flux-shell[0]:  WARN: exception: shell rank 90 (on flux-sample-90): Terminated
997.721s: flux-shell[0]:  WARN: exception: shell rank 92 (on flux-sample-92): Terminated
997.721s: flux-shell[0]:  WARN: exception: shell rank 93 (on flux-sample-93): Terminated
997.721s: flux-shell[0]:  WARN: exception: shell rank 96 (on flux-sample-96): Terminated
997.721s: flux-shell[0]:  WARN: exception: shell rank 97 (on flux-sample-97): Terminated
997.721s: flux-shell[0]:  WARN: exception: shell rank 98 (on flux-sample-98): Terminated
997.721s: flux-shell[0]:  WARN: exception: shell rank 99 (on flux-sample-99): Terminated
997.721s: flux-shell[0]:  WARN: exception: shell rank 101 (on flux-sample-101): Terminated
997.721s: flux-shell[0]:  WARN: exception: shell rank 104 (on flux-sample-104): Terminated
997.721s: flux-shell[0]:  WARN: exception: shell rank 106 (on flux-sample-106): Terminated
997.722s: flux-shell[0]:  WARN: exception: shell rank 115 (on flux-sample-115): Terminated
997.722s: flux-shell[0]:  WARN: exception: shell rank 149 (on flux-sample-149): Terminated
997.722s: flux-shell[0]:  WARN: exception: shell rank 178 (on flux-sample-178): Terminated
997.722s: flux-shell[0]:  WARN: exception: shell rank 189 (on flux-sample-189): Terminated
997.722s: flux-shell[0]:  WARN: exception: shell rank 204 (on flux-sample-204): Terminated
997.722s: flux-shell[0]:  WARN: exception: shell rank 207 (on flux-sample-207): Terminated
997.722s: flux-shell[0]:  WARN: exception: shell rank 208 (on flux-sample-208): Terminated
997.722s: flux-shell[0]:  WARN: exception: shell rank 213 (on flux-sample-213): Terminated
997.722s: flux-shell[0]:  WARN: exception: shell rank 219 (on flux-sample-219): Terminated
997.722s: flux-shell[0]:  WARN: exception: shell rank 250 (on flux-sample-250): Terminated
997.722s: flux-shell[0]:  WARN: exception: shell rank 64 (on flux-sample-64): Terminated
997.722s: flux-shell[0]:  WARN: exception: shell rank 68 (on flux-sample-68): Terminated
997.722s: flux-shell[0]:  WARN: exception: shell rank 70 (on flux-sample-70): Terminated
997.722s: flux-shell[0]:  WARN: exception: shell rank 71 (on flux-sample-71): Terminated
997.722s: flux-shell[0]:  WARN: exception: shell rank 72 (on flux-sample-72): Terminated
997.722s: flux-shell[0]:  WARN: exception: shell rank 75 (on flux-sample-75): Terminated
997.722s: flux-shell[0]:  WARN: exception: shell rank 76 (on flux-sample-76): Terminated
997.722s: flux-shell[0]:  WARN: exception: shell rank 77 (on flux-sample-77): Terminated
997.723s: flux-shell[0]:  WARN: exception: shell rank 78 (on flux-sample-78): Terminated
997.723s: flux-shell[0]:  WARN: exception: shell rank 79 (on flux-sample-79): Terminated
997.723s: flux-shell[0]:  WARN: exception: shell rank 80 (on flux-sample-80): Terminated
997.723s: flux-shell[0]:  WARN: exception: shell rank 81 (on flux-sample-81): Terminated
997.723s: flux-shell[0]:  WARN: exception: shell rank 82 (on flux-sample-82): Terminated
997.723s: flux-shell[0]:  WARN: exception: shell rank 83 (on flux-sample-83): Terminated
997.723s: flux-shell[0]:  WARN: exception: shell rank 84 (on flux-sample-84): Terminated
997.723s: flux-shell[0]:  WARN: exception: shell rank 85 (on flux-sample-85): Terminated
997.723s: flux-shell[0]:  WARN: exception: shell rank 86 (on flux-sample-86): Terminated
997.723s: flux-shell[0]:  WARN: exception: shell rank 89 (on flux-sample-89): Terminated
997.723s: flux-shell[0]:  WARN: exception: shell rank 91 (on flux-sample-91): Terminated
997.723s: flux-shell[0]:  WARN: exception: shell rank 94 (on flux-sample-94): Terminated
997.723s: flux-shell[0]:  WARN: exception: shell rank 102 (on flux-sample-102): Terminated
997.723s: flux-shell[0]:  WARN: exception: shell rank 103 (on flux-sample-103): Terminated
997.723s: flux-shell[0]:  WARN: exception: shell rank 105 (on flux-sample-105): Terminated
997.723s: flux-shell[0]:  WARN: exception: shell rank 107 (on flux-sample-107): Terminated
997.723s: flux-shell[0]:  WARN: exception: shell rank 114 (on flux-sample-114): Terminated
997.723s: flux-shell[0]:  WARN: exception: shell rank 119 (on flux-sample-119): Terminated
997.723s: flux-shell[0]:  WARN: exception: shell rank 120 (on flux-sample-120): Terminated
997.723s: flux-shell[0]:  WARN: exception: shell rank 126 (on flux-sample-126): Terminated
997.723s: flux-shell[0]:  WARN: exception: shell rank 130 (on flux-sample-130): Terminated
997.723s: flux-shell[0]:  WARN: exception: shell rank 133 (on flux-sample-133): Terminated
997.723s: flux-shell[0]:  WARN: exception: shell rank 137 (on flux-sample-137): Terminated
997.723s: flux-shell[0]:  WARN: exception: shell rank 143 (on flux-sample-143): Terminated
997.724s: flux-shell[0]:  WARN: exception: shell rank 147 (on flux-sample-147): Terminated
997.724s: flux-shell[0]:  WARN: exception: shell rank 148 (on flux-sample-148): Terminated
997.724s: flux-shell[0]:  WARN: exception: shell rank 153 (on flux-sample-153): Terminated
997.724s: flux-shell[0]:  WARN: exception: shell rank 158 (on flux-sample-158): Terminated
997.724s: flux-shell[0]:  WARN: exception: shell rank 161 (on flux-sample-161): Terminated
997.724s: flux-shell[0]:  WARN: exception: shell rank 162 (on flux-sample-162): Terminated
997.724s: flux-shell[0]:  WARN: exception: shell rank 163 (on flux-sample-163): Terminated
997.724s: flux-shell[0]:  WARN: exception: shell rank 164 (on flux-sample-164): Terminated
997.724s: flux-shell[0]:  WARN: exception: shell rank 169 (on flux-sample-169): Terminated
997.724s: flux-shell[0]:  WARN: exception: shell rank 170 (on flux-sample-170): Terminated
997.724s: flux-shell[0]:  WARN: exception: shell rank 171 (on flux-sample-171): Terminated
997.724s: flux-shell[0]:  WARN: exception: shell rank 172 (on flux-sample-172): Terminated
997.724s: flux-shell[0]:  WARN: exception: shell rank 174 (on flux-sample-174): Terminated
997.724s: flux-shell[0]:  WARN: exception: shell rank 175 (on flux-sample-175): Terminated
997.724s: flux-shell[0]:  WARN: exception: shell rank 181 (on flux-sample-181): Terminated
997.724s: flux-shell[0]:  WARN: exception: shell rank 184 (on flux-sample-184): Terminated
997.724s: flux-shell[0]:  WARN: exception: shell rank 185 (on flux-sample-185): Terminated
997.724s: flux-shell[0]:  WARN: exception: shell rank 186 (on flux-sample-186): Terminated
997.724s: flux-shell[0]:  WARN: exception: shell rank 188 (on flux-sample-188): Terminated
997.724s: flux-shell[0]:  WARN: exception: shell rank 191 (on flux-sample-191): Terminated
997.724s: flux-shell[0]:  WARN: exception: shell rank 192 (on flux-sample-192): Terminated
997.724s: flux-shell[0]:  WARN: exception: shell rank 193 (on flux-sample-193): Terminated
997.724s: flux-shell[0]:  WARN: exception: shell rank 194 (on flux-sample-194): Terminated
997.724s: flux-shell[0]:  WARN: exception: shell rank 196 (on flux-sample-196): Terminated
997.724s: flux-shell[0]:  WARN: exception: shell rank 197 (on flux-sample-197): Terminated
997.725s: flux-shell[0]:  WARN: exception: shell rank 200 (on flux-sample-200): Terminated
997.725s: flux-shell[0]:  WARN: exception: shell rank 201 (on flux-sample-201): Terminated
997.725s: flux-shell[0]:  WARN: exception: shell rank 202 (on flux-sample-202): Terminated
997.725s: flux-shell[0]:  WARN: exception: shell rank 205 (on flux-sample-205): Terminated
997.725s: flux-shell[0]:  WARN: exception: shell rank 206 (on flux-sample-206): Terminated
997.725s: flux-shell[0]:  WARN: exception: shell rank 209 (on flux-sample-209): Terminated
997.725s: flux-shell[0]:  WARN: exception: shell rank 212 (on flux-sample-212): Terminated
997.725s: flux-shell[0]:  WARN: exception: shell rank 216 (on flux-sample-216): Terminated
997.725s: flux-shell[0]:  WARN: exception: shell rank 222 (on flux-sample-222): Terminated
997.725s: flux-shell[0]:  WARN: exception: shell rank 224 (on flux-sample-224): Terminated
997.725s: flux-shell[0]:  WARN: exception: shell rank 230 (on flux-sample-230): Terminated
997.725s: flux-shell[0]:  WARN: exception: shell rank 237 (on flux-sample-237): Terminated
997.725s: flux-shell[0]:  WARN: exception: shell rank 238 (on flux-sample-238): Terminated
997.725s: flux-shell[0]:  WARN: exception: shell rank 239 (on flux-sample-239): Terminated
997.725s: flux-shell[0]:  WARN: exception: shell rank 243 (on flux-sample-243): Terminated
997.725s: flux-shell[0]:  WARN: exception: shell rank 245 (on flux-sample-245): Terminated
997.725s: flux-shell[0]:  WARN: exception: shell rank 248 (on flux-sample-248): Terminated
997.725s: flux-shell[0]:  WARN: exception: shell rank 249 (on flux-sample-249): Terminated
997.725s: flux-shell[0]:  WARN: exception: shell rank 252 (on flux-sample-252): Terminated
997.725s: flux-shell[0]:  WARN: exception: shell rank 253 (on flux-sample-253): Terminated
997.725s: flux-shell[0]:  WARN: exception: shell rank 254 (on flux-sample-254): Terminated
997.725s: flux-shell[0]:  WARN: exception: shell rank 95 (on flux-sample-95): Terminated
997.725s: flux-shell[0]:  WARN: exception: shell rank 100 (on flux-sample-100): Terminated
997.725s: flux-shell[0]:  WARN: exception: shell rank 108 (on flux-sample-108): Terminated
997.726s: flux-shell[0]:  WARN: exception: shell rank 109 (on flux-sample-109): Terminated
997.726s: flux-shell[0]:  WARN: exception: shell rank 111 (on flux-sample-111): Terminated
997.726s: flux-shell[0]:  WARN: exception: shell rank 112 (on flux-sample-112): Terminated
997.726s: flux-shell[0]:  WARN: exception: shell rank 113 (on flux-sample-113): Terminated
997.726s: flux-shell[0]:  WARN: exception: shell rank 116 (on flux-sample-116): Terminated
997.726s: flux-shell[0]:  WARN: exception: shell rank 117 (on flux-sample-117): Terminated
997.726s: flux-shell[0]:  WARN: exception: shell rank 118 (on flux-sample-118): Terminated
997.726s: flux-shell[0]:  WARN: exception: shell rank 121 (on flux-sample-121): Terminated
997.726s: flux-shell[0]:  WARN: exception: shell rank 123 (on flux-sample-123): Terminated
997.726s: flux-shell[0]:  WARN: exception: shell rank 124 (on flux-sample-124): Terminated
997.726s: flux-shell[0]:  WARN: exception: shell rank 125 (on flux-sample-125): Terminated
997.726s: flux-shell[0]:  WARN: exception: shell rank 127 (on flux-sample-127): Terminated
997.726s: flux-shell[0]:  WARN: exception: shell rank 128 (on flux-sample-128): Terminated
997.726s: flux-shell[0]:  WARN: exception: shell rank 129 (on flux-sample-129): Terminated
997.726s: flux-shell[0]:  WARN: exception: shell rank 134 (on flux-sample-134): Terminated
997.726s: flux-shell[0]:  WARN: exception: shell rank 135 (on flux-sample-135): Terminated
997.726s: flux-shell[0]:  WARN: exception: shell rank 136 (on flux-sample-136): Terminated
997.726s: flux-shell[0]:  WARN: exception: shell rank 138 (on flux-sample-138): Terminated
997.726s: flux-shell[0]:  WARN: exception: shell rank 139 (on flux-sample-139): Terminated
997.726s: flux-shell[0]:  WARN: exception: shell rank 140 (on flux-sample-140): Terminated
997.726s: flux-shell[0]:  WARN: exception: shell rank 141 (on flux-sample-141): Terminated
997.726s: flux-shell[0]:  WARN: exception: shell rank 142 (on flux-sample-142): Terminated
997.726s: flux-shell[0]:  WARN: exception: shell rank 151 (on flux-sample-151): Terminated
997.727s: flux-shell[0]:  WARN: exception: shell rank 154 (on flux-sample-154): Terminated
997.727s: flux-shell[0]:  WARN: exception: shell rank 156 (on flux-sample-156): Terminated
997.727s: flux-shell[0]:  WARN: exception: shell rank 159 (on flux-sample-159): Terminated
997.727s: flux-shell[0]:  WARN: exception: shell rank 160 (on flux-sample-160): Terminated
997.727s: flux-shell[0]:  WARN: exception: shell rank 165 (on flux-sample-165): Terminated
997.727s: flux-shell[0]:  WARN: exception: shell rank 166 (on flux-sample-166): Terminated
997.727s: flux-shell[0]:  WARN: exception: shell rank 176 (on flux-sample-176): Terminated
997.727s: flux-shell[0]:  WARN: exception: shell rank 180 (on flux-sample-180): Terminated
997.727s: flux-shell[0]:  WARN: exception: shell rank 187 (on flux-sample-187): Terminated
997.727s: flux-shell[0]:  WARN: exception: shell rank 195 (on flux-sample-195): Terminated
997.727s: flux-shell[0]:  WARN: exception: shell rank 198 (on flux-sample-198): Terminated
997.727s: flux-shell[0]:  WARN: exception: shell rank 203 (on flux-sample-203): Terminated
997.727s: flux-shell[0]:  WARN: exception: shell rank 210 (on flux-sample-210): Terminated
997.727s: flux-shell[0]:  WARN: exception: shell rank 211 (on flux-sample-211): Terminated
997.727s: flux-shell[0]:  WARN: exception: shell rank 214 (on flux-sample-214): Terminated
997.727s: flux-shell[0]:  WARN: exception: shell rank 215 (on flux-sample-215): Terminated
997.727s: flux-shell[0]:  WARN: exception: shell rank 217 (on flux-sample-217): Terminated
997.727s: flux-shell[0]:  WARN: exception: shell rank 218 (on flux-sample-218): Terminated
997.727s: flux-shell[0]:  WARN: exception: shell rank 220 (on flux-sample-220): Terminated
997.727s: flux-shell[0]:  WARN: exception: shell rank 221 (on flux-sample-221): Terminated
997.727s: flux-shell[0]:  WARN: exception: shell rank 223 (on flux-sample-223): Terminated
997.727s: flux-shell[0]:  WARN: exception: shell rank 226 (on flux-sample-226): Terminated
997.727s: flux-shell[0]:  WARN: exception: shell rank 227 (on flux-sample-227): Terminated
997.728s: flux-shell[0]:  WARN: exception: shell rank 228 (on flux-sample-228): Terminated
997.728s: flux-shell[0]:  WARN: exception: shell rank 229 (on flux-sample-229): Terminated
997.728s: flux-shell[0]:  WARN: exception: shell rank 231 (on flux-sample-231): Terminated
997.728s: flux-shell[0]:  WARN: exception: shell rank 232 (on flux-sample-232): Terminated
997.728s: flux-shell[0]:  WARN: exception: shell rank 233 (on flux-sample-233): Terminated
997.728s: flux-shell[0]:  WARN: exception: shell rank 234 (on flux-sample-234): Terminated
997.728s: flux-shell[0]:  WARN: exception: shell rank 235 (on flux-sample-235): Terminated
997.728s: flux-shell[0]:  WARN: exception: shell rank 236 (on flux-sample-236): Terminated
997.728s: flux-shell[0]:  WARN: exception: shell rank 240 (on flux-sample-240): Terminated
997.728s: flux-shell[0]:  WARN: exception: shell rank 241 (on flux-sample-241): Terminated
997.728s: flux-shell[0]:  WARN: exception: shell rank 242 (on flux-sample-242): Terminated
997.728s: flux-shell[0]:  WARN: exception: shell rank 244 (on flux-sample-244): Terminated
997.728s: flux-shell[0]:  WARN: exception: shell rank 246 (on flux-sample-246): Terminated
997.728s: flux-shell[0]:  WARN: exception: shell rank 247 (on flux-sample-247): Terminated
997.728s: flux-shell[0]:  WARN: exception: shell rank 251 (on flux-sample-251): Terminated
997.728s: flux-shell[0]:  WARN: exception: shell rank 255 (on flux-sample-255): Terminated
START OF JOBSPEC
{"resources": [{"type": "node", "count": 256, "with": [{"type": "slot", "count": 56, "with": [{"type": "core", "count": 1}], "label": "task"}]}], "tasks": [{"command": ["lmp", "-k", "on", "-sf", "kk", "-pk", "kokkos", "newton", "on", "neigh", "half", "-in", "in.snap.test", "-var", "snapdir", "2J8_W.SNAP", "-v", "x", "128", "-v", "y", "128", "-v", "z", "128", "-var", "nsteps", "20000"], "slot": "task", "count": {"per_slot": 1}}], "attributes": {"system": {"duration": 0, "cwd": "/code", "shell": {"options": {"rlimit": {"cpu": -1, "fsize": -1, "data": -1, "stack": 8388608, "core": -1, "nofile": 1048576, "as": -1, "rss": -1, "nproc": -1}, "cpu-affinity": "per-task"}}}, "user": {"study_id": "lammps-256-iter-1"}}, "version": 1}
START OF EVENTLOG
{"timestamp":1724458904.8107502,"name":"init"}
{"timestamp":1724458904.8120594,"name":"starting"}
{"timestamp":1724458904.9584517,"name":"shell.init","context":{"service":"0-shell-faeu7SNj","leader-rank":0,"size":256}}
{"timestamp":1724458905.1365921,"name":"shell.start","context":{"taskmap":{"version":1,"map":[[0,256,56,1]]}}}
{"timestamp":1724459901.6420538,"name":"shell.task-exit","context":{"localid":7,"rank":7,"state":"Exited","pid":145,"wait_status":15,"signaled":15,"exitcode":143}}
{"timestamp":1724459902.4935446,"name":"complete","context":{"status":36608}}
{"timestamp":1724459902.4935699,"name":"done"}

JOB FAILED: stopped at 15 minutes only made it to 1400 steps out of 20K
