WARNING on proc 0: Cannot open log.lammps for writing: Read-only file system (src/lammps.cpp:511)
LAMMPS (17 Apr 2024 - Development - a8687b5)
KOKKOS mode with Kokkos version 4.3.1 is enabled (src/KOKKOS/kokkos.cpp:72)
  will use up to 1 GPU(s) per node
  using 1 OpenMP thread(s) per MPI task
Reading data file ...
  triclinic box = (0 0 0) to (22.326 11.1412 13.778966) with tilt (0 -5.02603 0)
  8 by 4 by 4 MPI processor grid
  reading atoms ...
  304 atoms
  reading velocities ...
  304 velocities
  read_data CPU = 0.390 seconds
Replication is creating a 64x32x32 = 65536 times larger system...
  triclinic box = (0 0 0) to (1428.864 356.5184 440.92691) with tilt (0 -160.83296 0)
  8 by 4 by 4 MPI processor grid
  bounding box image = (0 -1 -1) to (0 1 1)
  bounding box extra memory = 0.03 MB
  average # of replicas added to proc = 845.30 out of 65536 (1.29%)
  19922944 atoms
  replicate CPU = 0.049 seconds
Neighbor list info ...
  update: every = 20 steps, delay = 0 steps, check = no
  max neighbors/atom: 2000, page size: 100000
  master list distance cutoff = 11
  ghost atom cutoff = 11
  binsize = 11, bins = 145 33 41
  2 neighbor lists, perpetual/occasional/extra = 2 0 0
  (1) pair reaxff/kk, perpetual
      attributes: half, newton off, ghost, kokkos_device
      pair build: half/bin/newtoff/ghost/kk/device
      stencil: full/ghost/bin/3d
      bin: kk/device
  (2) fix qeq/reax/kk, perpetual
      attributes: full, newton off, kokkos_device
      pair build: full/bin/kk/device
      stencil: full/bin/3d
      bin: kk/device
Setting up Verlet run ...
  Unit style    : real
  Current step  : 0
  Time step     : 0.1
Per MPI rank memory allocation (min/avg/max) = 1866 | 1866 | 1873 Mbytes
   Step          Temp          PotEng         Press          E_vdwl         E_coul         Volume    
         0   300           -113.27833      439.02031     -111.57687     -1.7014647      2.2461536e+08
        10   300.76787     -113.28045      806.94582     -111.57901     -1.7014353      2.2461536e+08
        20   302.41893     -113.28523      1697.8315     -111.5839      -1.701324       2.2461536e+08
        30   302.57545     -113.28557      4298.5113     -111.58447     -1.7010952      2.2461536e+08
        40   300.64331     -113.27974      6396.7951     -111.57897     -1.7007684      2.2461536e+08
        50   297.45504     -113.27019      6484.6629     -111.56979     -1.7004028      2.2461536e+08
        60   294.75204     -113.26209      6200.5583     -111.56205     -1.700033       2.2461536e+08
        70   294.65378     -113.26175      6838.3363     -111.56209     -1.6996572      2.2461536e+08
        80   297.75342     -113.27097      8234.8761     -111.57169     -1.6992792      2.2461536e+08
        90   301.65876     -113.28261      9374.4772     -111.58366     -1.6989423      2.2461536e+08
       100   302.57975     -113.2853       10365.441     -111.5866      -1.6986994      2.2461536e+08
Loop time of 21.4256 on 128 procs for 100 steps with 19922944 atoms

Performance: 0.040 ns/day, 595.156 hours/ns, 4.667 timesteps/s, 92.986 Matom-step/s
70.0% CPU use with 128 MPI tasks x 1 OpenMP threads

MPI task timing breakdown:
Section |  min time  |  avg time  |  max time  |%varavg| %total
---------------------------------------------------------------
Pair    | 2.5324     | 2.5744     | 2.842      |   2.2 | 12.02
Neigh   | 0.30389    | 0.41042    | 1.4925     |  33.0 |  1.92
Comm    | 1.6925     | 1.9557     | 2.0263     |   2.6 |  9.13
Output  | 0.028905   | 0.042291   | 0.055687   |   3.4 |  0.20
Modify  | 15.221     | 16.371     | 16.504     |   5.4 | 76.41
Other   |            | 0.07174    |            |       |  0.33

Nlocal:         155648 ave      155699 max      155621 min
Histogram: 11 20 30 28 12 11 7 6 2 1
Nghost:         106806 ave      106869 max      106747 min
Histogram: 8 8 9 16 23 28 17 10 1 8
Neighs:    4.22133e+07 ave 4.22266e+07 max 4.22056e+07 min
Histogram: 10 17 24 25 21 11 11 4 4 1
FullNghs:  7.63742e+07 ave 7.63989e+07 max 7.63606e+07 min
Histogram: 13 18 24 28 16 10 10 5 3 1

Total # of neighbors = 9.7758959e+09
Ave neighs/atom = 490.68531
Neighbor list builds = 5
Dangerous builds not checked
Total wall time: 0:00:28
START OF JOBSPEC
{"resources": [{"type": "node", "count": 16, "with": [{"type": "slot", "count": 8, "with": [{"type": "core", "count": 1}, {"type": "gpu", "count": 1}], "label": "task"}]}], "tasks": [{"command": ["singularity", "exec", "--nv", "--pwd", "/code", "--env", "FI_PROVIDER=tcp,self", "/opt/containers/metric-lammps-gpu_google-gpu.sif", "/opt/lammps/build/lmp", "-k", "on", "g", "1", "-sf", "kk", "-pk", "kokkos", "cuda/aware", "off", "newton", "on", "neigh", "half", "-in", "in.reaxff.hns", "-v", "x", "64", "-v", "y", "32", "-v", "z", "32", "-in", "in.reaxff.hns", "-nocite"], "slot": "task", "count": {"per_slot": 1}}], "attributes": {"system": {"duration": 0, "cwd": "/home/sochat1_llnl_gov", "shell": {"options": {"rlimit": {"cpu": -1, "fsize": -1, "data": -1, "stack": 8388608, "core": 0, "nofile": 1048576, "as": -1, "rss": -1, "nproc": -1}, "gpu-affinity": "per-task", "cpu-affinity": "per-task"}}}, "user": {"study_id": "lammps-reax-16-iter-2"}}, "version": 1}
START OF EVENTLOG
{"timestamp":1725836999.5643849,"name":"init"}
{"timestamp":1725836999.5652988,"name":"starting"}
{"timestamp":1725836999.5888331,"name":"shell.init","context":{"service":"501043911-shell-fhS5cy8s","leader-rank":0,"size":16}}
{"timestamp":1725836999.6120586,"name":"shell.start","context":{"taskmap":{"version":1,"map":[[0,16,8,1]]}}}
{"timestamp":1725837030.1478729,"name":"shell.task-exit","context":{"localid":2,"rank":82,"state":"Exited","pid":10819,"wait_status":0,"signaled":0,"exitcode":0}}
{"timestamp":1725837030.6068051,"name":"complete","context":{"status":0}}
{"timestamp":1725837030.6068399,"name":"done"}

