LAMMPS (17 Apr 2024 - Development - a8687b5)
KOKKOS mode with Kokkos version 4.3.1 is enabled (src/KOKKOS/kokkos.cpp:72)
  using 1 OpenMP thread(s) per MPI task
Lattice spacing in x,y,z = 3.1803 3.1803 3.1803
Created orthogonal box = (0 0 0) to (12.7212 12.7212 12.7212)
  14 by 16 by 16 MPI processor grid
Created 128 atoms
  using lattice units in orthogonal box = (0 0 0) to (12.7212 12.7212 12.7212)
  create_atoms CPU = 0.119 seconds
SNAP Element = W, Radius 0.5, Weight 1
SNAP keyword rcutfac 4.87644
SNAP keyword twojmax 8
SNAP keyword rfac0 0.99363
SNAP keyword rmin0 0
SNAP keyword bzeroflag 1
SNAP keyword quadraticflag 0
Displacing atoms ...
Neighbor list info ...
  update: every = 1 steps, delay = 0 steps, check = yes
  max neighbors/atom: 2000, page size: 100000
  master list distance cutoff = 4.87644
  ghost atom cutoff = 4.87644
  binsize = 2.43822, bins = 6 6 6
  2 neighbor lists, perpetual/occasional/extra = 2 0 0
  (1) pair zbl, perpetual
      attributes: half, newton on, kokkos_device, cut 4.8
      pair build: half/bin/newton/kk/device
      stencil: half/bin/3d
      bin: kk/device
  (2) pair snap, perpetual
      attributes: full, newton on
      pair build: full/bin/atomonly
      stencil: full/bin/3d
      bin: standard
Setting up Verlet run ...
  Unit style    : metal
  Current step  : 0
  Time step     : 0.0005
Per MPI rank memory allocation (min/avg/max) = 2.568 | 2.668 | 5.31 Mbytes
   Step          Temp          E_pair         E_mol          TotEng         Press     
         0   800           -8.9091051      0             -8.8065049      5048.8849    
        50   594.22729     -8.8748538      0             -8.798644       10447.064    
       100   822.00079     -8.7032795      0             -8.5978577      55602.469    
       150   892.87818     -8.3510854      0             -8.2365735      146990.93    
       200   1023.8003     -8.3278028      0             -8.1965001      156936.97    
       250   911.78972     -8.1212314      0             -8.0042941      207564.85    
       300   1052.3044     -7.8802706      0             -7.7453122      274504.41    
       350   1277.8611     -7.7407763      0             -7.5768902      314511.76    
       400   1110.5331     -7.6043051      0             -7.4618789      351953.6     
       450   1035.1387     -7.404096       0             -7.2713392      400364.9     
       500   1263.0886     -7.5569605      0             -7.394969       364260.51    
       550   1014.3886     -7.4580256      0             -7.3279299      392842.6     
       600   1006.1122     -7.4512363      0             -7.3222021      395314.2     
       650   1140.7021     -7.3577111      0             -7.2114157      422348.26    
       700   895.3007      -7.3463372      0             -7.2315146      419615.71    
       750   1092.0856     -7.1938287      0             -7.0537684      462583.38    
       800   1256.8337     -7.0159615      0             -6.8547722      510392.4     
       850   1457.5524     -6.6953032      0             -6.5083717      596356.96    
       900   1306.5463     -6.778589       0             -6.611024       573472.1     
       950   1078.3053     -6.7654188      0             -6.6271258      577871.3     
      1000   1427.5418     -6.5552846      0             -6.3722019      635944       
      1050   1807.4024     -5.891386       0             -5.6595861      811126.55    
      1100   1605.3078     -5.9663141      0             -5.7604329      794515       
      1150   1670.9762     -5.8491795      0             -5.6348763      818368.56    
      1200   1586.9934     -6.0093683      0             -5.8058359      786588.51    
      1250   1378.6745     -5.4900506      0             -5.3132351      918328.77    
      1300   1579.0401     -5.5544682      0             -5.3519558      903116.66    
      1350   1630.2595     -5.3302152      0             -5.121134       959671.58    
      1400   1856.7166     -5.3163449      0             -5.0782205      968659.17    
      1450   1541.4583     -5.1540119      0             -4.9563194      999931.61    
      1500   2113.4011     -4.9651839      0             -4.6941396      1055169.6    
      1550   1973.1597     -4.8777517      0             -4.6246933      1082184.6    
      1600   1555.9486     -4.8721818      0             -4.6726309      1081371.2    
      1650   1981.2365     -4.7667112      0             -4.512617       1114894.3    
      1700   2249.2349     -4.5649012      0             -4.2764362      1166756.9    
      1750   1965.5951     -4.3987666      0             -4.1466784      1201316.1    
      1800   1883.1601     -4.3215658      0             -4.0800499      1223805.4    
      1850   1887.4281     -4.007262       0             -3.7651988      1304471.7    
      1900   2053.1456     -3.7756731      0             -3.5123565      1362739.7    
      1950   1899.8647     -3.6385851      0             -3.3949269      1401340      
      2000   1639.9681     -3.7605725      0             -3.5502461      1378370.7    
      2050   2258.6783     -3.2437347      0             -2.9540586      1492039.2    
      2100   2257.857      -3.3894973      0             -3.0999264      1475447.6    
      2150   2408.8682     -2.979992       0             -2.671054       1579725.6    
      2200   2068.7526     -3.171051       0             -2.9057329      1533677.2    
      2250   2138.3719     -2.7364362      0             -2.4621894      1637716.8    
      2300   2194.1278     -2.8395137      0             -2.5581161      1610018.3    
      2350   2735.6785     -2.8140166      0             -2.463165       1629704.4    
      2400   3083.1106     -3.0155527      0             -2.6201428      1591383.9    
      2450   2213.0831     -2.204003       0             -1.9201745      1776727.1    
      2500   2545.403      -2.7123243      0             -2.3858756      1665906.1    
      2550   2391.1036     -2.1530897      0             -1.84643        1788574.6    
      2600   2800.2107     -2.6655579      0             -2.3064301      1678916.3    
      2650   2404.253      -2.1694483      0             -1.8611022      1792508.1    
      2700   2268.3118     -2.0605726      0             -1.7696609      1828021.9    
      2750   2841.4779     -1.9584859      0             -1.5940655      1857816.3    
      2800   2669.4594     -1.9109731      0             -1.5686141      1865287      
      2850   2802.4495     -1.1068651      0             -0.74745011     2061243.5    
      2900   3395.7253     -1.0479349      0             -0.61243212     2083670.1    
      2950   2861.1925     -0.96754232     0             -0.60059352     2091923.3    
      3000   3282.2118     -0.92297732     0             -0.50203268     2125842.6    
      3050   3885.4431     -0.73583477     0             -0.23752552     2147834.9    
      3100   4166.3375     -0.065956856    0              0.46837718     2326290      
      3150   3727.9206     -0.51165935     0             -0.033552413    2226688.9    
      3200   3461.9342     -0.53452031     0             -0.09052621     2231830.5    
      3250   4131.5399      0.0096221264   0              0.53949336     2365993      
      3300   4202.4877      0.18665918     0              0.7256295      2410682      
      3350   4334.3375      0.79124411     0              1.3471242      2549383.1    
      3400   3942.8812      0.51085597     0              1.0165317      2506784.1    
      3450   3808.5566      1.0175647      0              1.5060132      2624247.1    
      3500   3514.8749      0.74006201     0              1.1908458      2553316.4    
      3550   3254.2015      1.5638955      0              1.9812478      2756686.8    
      3600   3815.9757      1.4232501      0              1.9126501      2720525.4    
      3650   4691.1996      1.2411622      0              1.84281        2693746.6    
      3700   4392.4253      1.2414755      0              1.8048054      2681270.6    
      3750   4585.4627      0.84554213     0              1.4336291      2583306.9    
      3800   4128.5847      0.90242089     0              1.4319131      2598312      
      3850   4040.5836      0.99748623     0              1.5156923      2612263.9    
      3900   3997.6864      1.9031046      0              2.415809       2836856.1    
      3950   4298.5514      2.3318253      0              2.8831158      2950552.5    
      4000   4496.5493      1.5475607      0              2.1242445      2752706.3    
      4050   4227.2466      1.9168941      0              2.4590398      2842933.6    
      4100   4750.8841      2.8057253      0              3.4150276      3064838.8    
      4150   4796.7953      3.3077715      0              3.9229619      3176479.2    
      4200   5031.2311      2.9268344      0              3.5720913      3103985.6    
      4250   4481.9983      3.198539       0              3.7733566      3165522.7    
      4300   4747.5975      3.2411055      0              3.8499863      3165859.6    
      4350   4804.3428      3.8963604      0              4.5125189      3338102.8    
      4400   5589.0239      3.5735359      0              4.2903298      3266380      
      4450   5314.5636      3.1449154      0              3.8265098      3174661.4    
      4500   4740.9167      3.6476811      0              4.255705       3293803.9    
      4550   4321.7465      3.5264427      0              4.080708       3259795.3    
      4600   4971.5926      3.2387182      0              3.8763265      3199448.8    
      4650   4821.6331      4.3808646      0              4.9992405      3480277.3    
      4700   5373.8929      4.0714759      0              4.7606793      3407757.4    
      4750   5023.4493      4.1480079      0              4.7922668      3424046.1    
      4800   4780.0239      4.7412954      0              5.3543349      3565742.3    
      4850   4996.4877      4.6849765      0              5.3257775      3558664.7    
      4900   5016.8867      4.8630159      0              5.5064331      3598921.7    
      4950   5924.562       4.1381177      0              4.8979446      3446868.9    
      5000   5400.7222      4.3627938      0              5.055438       3484568.4    
      5050   4845.6523      4.7212639      0              5.3427203      3576679.6    
      5100   5321.5391      4.8073363      0              5.4898253      3624939.5    
      5150   5022.9702      5.3224204      0              5.9666178      3750819.4    
      5200   6383.0247      5.0325139      0              5.8511387      3677910.2    
      5250   5455.4886      5.0596296      0              5.7592977      3682530.3    
      5300   6538.8957      6.2288988      0              7.0675141      3983569      
      5350   5156.8275      5.9784059      0              6.6397706      3909521.5    
      5400   5763.0712      5.7109559      0              6.4500715      3836550.4    
      5450   5028.6102      5.7770002      0              6.421921       3849433.4    
      5500   5532.8111      6.0422595      0              6.7518441      3904444.9    
      5550   5590.8658      6.6790812      0              7.3961114      4085305.4    
      5600   5756.023       6.4222018      0              7.1604135      4047608.2    
      5650   6471.11        7.0281807      0              7.8581025      4194708.5    
      5700   6466.5655      6.6459317      0              7.4752707      4090386.8    
      5750   6001.2325      7.0148074      0              7.7844673      4178352.9    
      5800   7166.5674      7.0343932      0              7.9535076      4197611.5    
      5850   7316.1164      7.8329336      0              8.7712277      4382385.9    
      5900   6836.5469      7.8630807      0              8.7398699      4385287.4    
      5950   7053.3324      7.3270771      0              8.2316691      4270821.3    
      6000   6904.8346      7.4614391      0              8.3469863      4306329.2    
      6050   7070.1642      8.7622866      0              9.6690372      4629794.6    
      6100   7460.9306      8.3221696      0              9.2790361      4551288.4    
      6150   6393.0706      8.2411333      0              9.0610466      4502264.4    
      6200   6926.3357      8.5761675      0              9.4644721      4625024.3    
      6250   6984.0538      9.519743       0              10.41545       4849191.9    
      6300   6343.5558      8.641054       0              9.4546169      4633939      
      6350   5992.6495      8.5897893      0              9.3583484      4614292.5    
      6400   5381.3105      9.4739678      0              10.164122      4803099.7    
      6450   6948.6565      9.2511402      0              10.142308      4760405.4    
      6500   7688.9872      8.5620843      0              9.5481992      4600634.1    
      6550   6975.7721      9.8735969      0              10.768242      4915584.7    
      6600   6595.7471      9.876706       0              10.722613      4937260.2    
      6650   5906.6884      9.3535274      0              10.111062      4788726.5    
      6700   6612.0725      9.9656621      0              10.813662      4941188.2    
      6750   6066.6133      9.5458752      0              10.32392       4861122.3    
      6800   6361.5307      9.5394371      0              10.355305      4852758.6    
      6850   6537.0315      10.155274      0              10.99365       4971121.2    
      6900   6994.9572      10.240339      0              11.137444      5013886      
      6950   6639.7641      10.521817      0              11.373369      5064852.1    
      7000   5478.4808      9.9151551      0              10.617772      4924782.9    
      7050   7864.2529      11.101898      0              12.110491      5212456.6    
      7100   7644.169       9.9718564      0              10.952223      4950514.9    
      7150   8645.1177      9.5422834      0              10.651022      4839809.4    
      7200   9079.4349      10.945611      0              12.110052      5186551.5    
      7250   7115.2469      11.119757      0              12.03229       5224314.8    
      7300   6440.2867      11.61726       0              12.443228      5331397.5    
      7350   7883.0003      12.262123      0              13.27312       5463073.3    
      7400   7546.2231      11.6021        0              12.569906      5335860.4    
      7450   6901.1311      12.057068      0              12.94214       5440754.3    
      7500   9179.9202      12.35563       0              13.532958      5531536.4    
      7550   7298.465       11.819265      0              12.755296      5380099.8    
      7600   7598.2388      11.74466       0              12.719136      5377927.6    
      7650   6343.5911      11.24683       0              12.060398      5259175.7    
      7700   6542.0667      11.894812      0              12.733834      5410615.8    
      7750   6556.7912      12.385723      0              13.226634      5526661.5    
      7800   6734.448       13.509501      0              14.373196      5822980.5    
      7850   5648.2947      12.329121      0              13.053517      5538365.6    
      7900   6116.3635      13.324888      0              14.109314      5753658.5    
      7950   5495.3147      12.426866      0              13.131641      5566776.8    
      8000   7227.5634      13.143024      0              14.069962      5753387.4    
      8050   6596.0462      14.03335       0              14.879295      5939258.7    
      8100   5964.5489      13.430089      0              14.195044      5797593.4    
      8150   5139.0079      13.57176       0              14.230839      5827330.9    
      8200   5660.6531      13.210268      0              13.936248      5753105.6    
      8250   7076.2974      13.283024      0              14.190561      5786183      
      8300   9015.0339      13.485867      0              14.642047      5837396.1    
      8350   8542.4304      14.564756      0              15.660325      6058575.1    
      8400   8432.7303      13.436408      0              14.517908      5821726.3    
      8450   8474.7797      14.25753       0              15.344423      6031516.6    
      8500   7541.6065      14.342563      0              15.309776      6068881      
      8550   8977.8657      14.07249       0              15.223904      5998012.1    
      8600   6981.4262      13.634073      0              14.529443      5895456.2    
      8650   6622.9176      13.918065      0              14.767456      5936062.8    
      8700   5273.6758      14.155351      0              14.831701      5982631      
      8750   5394.1356      13.901551      0              14.59335       5933937.1    
      8800   8339.4793      14.739368      0              15.808908      6194117.3    
      8850   8164.8132      15.898145      0              16.945285      6453014.1    
      8900   7136.3059      15.584275      0              16.499508      6350502.1    
      8950   8538.0956      16.632955      0              17.727968      6609675.2    
      9000   8318.7675      15.947664      0              17.014549      6472104.7    
      9050   8212.1979      15.74559       0              16.798807      6371508.2    
      9100   7741.1299      16.36913       0              17.361932      6568223.3    
      9150   7562.8916      15.668574      0              16.638517      6385968.9    
      9200   8421.5015      16.674932      0              17.754992      6661361.1    
      9250   8517.4229      16.292471      0              17.384833      6547127.5    
      9300   8487.6893      16.113515      0              17.202063      6505822.4    
      9350   9994.1417      16.865625      0              18.147377      6650262.8    
      9400   8476.9208      16.258849      0              17.346016      6533502.8    
      9450   7415.5053      16.118836      0              17.069877      6495784.3    
      9500   7505.9236      15.655155      0              16.617792      6374267.6    
      9550   6787.892       17.275745      0              18.146294      6772638.3    
      9600   7317.8298      18.186877      0              19.125391      7015419.5    
      9650   7920.2988      18.002904      0              19.018685      6971520.6    
      9700   8028.9216      18.431477      0              19.461189      7108505.9    
      9750   8413.0365      19.915627      0              20.994602      7452649.5    
      9800   7808.9631      18.55651       0              19.558012      7137307.2    
      9850   9401.499       21.025799      0              22.231544      7732144.9    
      9900   8013.0096      20.601129      0              21.6288        7654741.2    
      9950   10615.346      21.848691      0              23.210113      7990799.2    
     10000   10853.819      21.645204      0              23.03721       7934449.7    
     10050   9013.0996      20.216606      0              21.372539      7543763.4    
     10100   8421.4323      22.639773      0              23.719824      8206582.9    
     10150   9111.0097      24.457127      0              25.625617      8640604.1    
     10200   7049.8165      24.691062      0              25.595203      8718497      
     10250   8424.9239      24.689788      0              25.770287      8654278.1    
     10300   9486.0982      24.632592      0              25.849187      8720961.3    
     10350   10491.049      23.551387      0              24.896868      8432087.4    
     10400   8863.1595      23.184234      0              24.320937      8356284.1    
     10450   7797.0531      25.921829      0              26.921804      9017909      
     10500   8256.2204      24.341261      0              25.400124      8694246.9    
     10550   7606.2076      23.003635      0              23.979134      8348545.9    
     10600   5974.4442      24.711045      0              25.47727       8752239.3    
     10650   7241.9809      25.652366      0              26.581152      9002555.1    
     10700   8590.6915      22.572781      0              23.67454       8230154.3    
     10750   10374.384      24.248048      0              25.578566      8654268.7    
     10800   7941.4719      25.398864      0              26.41736       8935355.6    
     10850   8554.0865      23.795304      0              24.892368      8502325.8    
     10900   8956.7633      24.729368      0              25.878076      8795728.3    
     10950   8244.1527      25.42414       0              26.481455      8927863.9    
     11000   6564.8464      26.773711      0              27.615655      9262809.3    
     11050   10123.684      26.967517      0              28.265883      9296552      
     11100   12583.029      30.981017      0              32.594794      10436172     
     11150   8425.0255      30.52163       0              31.602143      10274548     
     11200   6486.5413      29.19019       0              30.022091      9934814.7    
     11250   5142.4924      30.941055      0              31.600581      10414583     
     11300   4483.6238      30.280142      0              30.855168      10222238     
     11350   4017.2109      30.480192      0              30.995401      10262467     
     11400   3318.5022      30.604397      0              31.029995      10321603     
     11450   2791.8147      29.080622      0              29.438673      9897574.2    
     11500   2806.2915      30.383757      0              30.743665      10268940     
     11550   2960.7032      30.763413      0              31.143124      10361089     
     11600   3539.7077      30.727997      0              31.181966      10350027     
     11650   3623.1614      29.788157      0              30.252828      10086106     
     11700   3199.8862      30.461464      0              30.87185       10271552     
     11750   2632.64        30.935052      0              31.272689      10403454     
     11800   3335.5675      28.712841      0              29.140628      9837531.2    
     11850   3102.0902      30.017518      0              30.415362      10167399     
     11900   2767.2812      30.308406      0              30.663311      10233151     
     11950   2716.8773      29.511549      0              29.859989      10015933     
     12000   3018.4559      28.965119      0              29.352237      9899278.3    
     12050   2574.3021      31.197672      0              31.527827      10470724     
     12100   2784.8549      29.996185      0              30.353343      10140419     
     12150   3379.5004      30.901855      0              31.335277      10397582     
     12200   3214.903       29.85072       0              30.263032      10117055     
     12250   3786.2685      31.238095      0              31.723685      10491558     
     12300   3391.912       31.019027      0              31.454041      10430312     
     12350   3140.8406      30.151535      0              30.554348      10182783     
     12400   3194.8526      31.208032      0              31.617772      10478572     
     12450   2553.0804      29.494046      0              29.82148       9982770      
     12500   2913.7392      31.581042      0              31.95473       10569124     
     12550   3014.7362      31.813529      0              32.20017       10623675     
     12600   3222.3998      31.564934      0              31.978208      10570363     
     12650   3001.623       28.422158      0              28.807118      9724992.6    
     12700   3106.9099      31.575607      0              31.974069      10567220     
     12750   3429.1069      30.193068      0              30.632852      10192175     
     12800   3155.0361      30.799131      0              31.203766      10339430     
     12850   2667.2812      30.68312       0              31.0252        10320883     
     12900   2795.8707      31.389105      0              31.747676      10522481     
     12950   3301.8717      28.973565      0              29.397031      9880334.9    
     13000   3912.0578      29.366792      0              29.868514      9987142.9    
     13050   4716.3502      28.975681      0              29.580554      9879934.6    
     13100   4399.7922      29.250759      0              29.815034      9940818.4    
     13150   3417.8768      30.312237      0              30.750581      10213848     
     13200   3882.6164      29.182268      0              29.680215      9939487.8    
     13250   3811.1666      31.461682      0              31.950466      10541039     
     13300   3280.404       30.875814      0              31.296527      10371727     
     13350   3329.9264      30.665224      0              31.092289      10334242     
     13400   3543.0797      30.395668      0              30.850069      10232852     
     13450   3117.7846      30.691907      0              31.091764      10326232     
     13500   4229.6495      29.214428      0              29.756882      9962644.4    
     13550   3277.4995      29.402977      0              29.823318      10011231     
     13600   3258.5692      31.654737      0              32.07265       10587571     
     13650   3573.0134      31.984571      0              32.442811      10664085     
     13700   3719.9755      29.604348      0              30.081436      10043544     
     13750   4135.6206      30.001856      0              30.53225       10160578     
     13800   3368.2819      28.997756      0              29.429739      9887717.1    
     13850   2952.0285      30.272131      0              30.65073       10228226     
     13900   2721.1003      30.305571      0              30.654553      10230996     
     13950   2964.8363      30.51175       0              30.891991      10275367     
     14000   3386.1589      31.531651      0              31.965927      10561346     
     14050   3043.5117      30.473466      0              30.863797      10292300     
     14100   3320.6063      29.955018      0              30.380887      10125066     
     14150   3769.2808      29.649527      0              30.132938      10067644     
     14200   3347.9102      29.497962      0              29.927332      10027968     
     14250   3404.3145      32.161622      0              32.598226      10716786     
     14300   3029.6727      30.296071      0              30.684627      10240415     
     14350   3328.3692      30.221104      0              30.647968      10193101     
     14400   2850.5012      29.867368      0              30.232945      10100471     
     14450   3967.9802      28.904138      0              29.413033      9874827.3    
     14500   3653.9326      31.869244      0              32.337862      10650005     
     14550   3202.7223      30.542232      0              30.952982      10295848     
     14600   3562.4681      32.049401      0              32.506288      10692127     
     14650   3985.8592      29.818776      0              30.329964      10095282     
     14700   4458.0012      30.646315      0              31.218055      10331554     
     14750   3587.2316      28.234421      0              28.694484      9712444.4    
     14800   3693.7678      31.056619      0              31.530346      10424940     
     14850   3425.1353      30.981787      0              31.421062      10392862     
     14900   3116.983       31.43425       0              31.834004      10518763     
     14950   2741.8769      29.334364      0              29.68601       9974546.8    
     15000   3514.0861      31.158242      0              31.608924      10446905     
     15050   4132.8294      28.574147      0              29.104183      9757520.1    
     15100   3983.7901      30.034913      0              30.545835      10161376     
     15150   3450.5392      30.74801       0              31.190542      10351573     
     15200   3967.4139      30.645504      0              31.154326      10327338     
     15250   3996.3361      30.727292      0              31.239824      10354696     
     15300   3256.798       29.13163       0              29.549316      9937213.9    
     15350   4104.8434      30.313657      0              30.840104      10221934     
     15400   3817.5856      29.665386      0              30.154993      10077069     
     15450   3121.9011      28.791369      0              29.191754      9839182.3    
     15500   3559.9637      28.219365      0              28.675932      9695915.2    
     15550   3519.1521      28.537696      0              28.989028      9770442.5    
     15600   3580.5262      29.446738      0              29.905941      9986584.2    
     15650   3137.2756      29.654475      0              30.056831      10070450     
     15700   3707.8557      27.713813      0              28.189347      9556596      
     15750   3082.42        30.79942       0              31.194741      10371220     
     15800   3071.9511      29.434906      0              29.828884      10009015     
     15850   3121.7244      31.212084      0              31.612446      10474138     
     15900   2961.7329      28.624746      0              29.004589      9777281      
     15950   2863.9866      29.458561      0              29.825868      10018657     
     16000   2998.094       30.308125      0              30.692632      10205623     
     16050   3129.6812      28.141442      0              28.542824      9679411.5    
     16100   4054.4853      30.983903      0              31.503892      10419447     
     16150   4200.7134      27.262354      0              27.801097      9420137.7    
     16200   4026.0862      29.084733      0              29.60108       9923701.5    
     16250   3740.2887      28.938402      0              29.418095      9869071.2    
     16300   4313.8903      29.36499       0              29.918248      10009736     
     16350   3981.4605      31.94732       0              32.457944      10661260     
     16400   4606.7149      30.305086      0              30.895898      10227744     
     16450   5224.8364      31.069919      0              31.740006      10438736     
     16500   4559.2232      31.163679      0              31.748401      10458986     
     16550   4569.1711      32.689489      0              33.275486      10860316     
     16600   5406.8388      30.753228      0              31.446657      10363120     
     16650   5441.513       29.168418      0              29.866294      9938466.8    
     16700   5074.1693      29.016673      0              29.667436      9919003.1    
     16750   5071.1898      31.34869       0              31.999072      10514134     
     16800   5762.0638      31.570358      0              32.309344      10564277     
     16850   5103.8962      30.230768      0              30.885345      10221383     
     16900   4106.4974      29.924413      0              30.451073      10144503     
     16950   3618.6163      28.550687      0              29.014776      9749200.1    
     17000   4503.6996      27.120706      0              27.698307      9405544.3    
     17050   3610.3662      30.43882       0              30.90185       10270139     
     17100   4427.4222      29.36912       0              29.936939      9969982.8    
     17150   3674.2214      30.636857      0              31.108077      10328620     
     17200   3980.5919      29.575565      0              30.086078      10059111     
     17250   3289.1142      30.093475      0              30.515305      10174609     
     17300   3911.6114      27.701153      0              28.202819      9510448.9    
     17350   3949.0589      30.2227        0              30.729168      10214714     
     17400   4136.5939      31.23787       0              31.768389      10481959     
     17450   4595.5912      32.08393       0              32.673316      10689886     
     17500   5127.17        31.055792      0              31.713353      10420988     
     17550   5670.0912      32.544036      0              33.271227      10802895     
     17600   5011.3478      31.21956       0              31.862267      10465061     
     17650   5558.3192      32.537699      0              33.250555      10816275     
     17700   5140.0471      31.236006      0              31.895219      10469305     
     17750   6006.7751      31.462677      0              32.233048      10545828     
     17800   5892.7252      33.086059      0              33.841803      10966953     
     17850   5600.7405      32.627749      0              33.346045      10852542     
     17900   5166.7698      30.327503      0              30.990142      10198704     
     17950   5668.1235      28.636552      0              29.36349       9809455.4    
     18000   4985.5819      31.759051      0              32.398453      10619889     
     18050   6580.9659      31.118628      0              31.962639      10458406     
     18100   5057.2098      33.372139      0              34.020728      11043060     
     18150   5127.8375      30.29698       0              30.954626      10254192     
     18200   4790.0629      31.727397      0              32.341724      10598730     
     18250   4866.3807      32.851336      0              33.47545       10896687     
     18300   4176.7638      29.763608      0              30.299279      10069804     
     18350   3956.7884      31.683601      0              32.19106       10593123     
     18400   4828.5308      28.737645      0              29.356905      9833237.1    
     18450   4167.6297      28.8188        0              29.353299      9839488.3    
     18500   3961.6135      30.003542      0              30.511621      10162797     
     18550   4122.5509      30.92198       0              31.450698      10400016     
     18600   4588.1412      31.419095      0              32.007525      10528589     
     18650   4353.3709      29.599835      0              30.158156      10045053     
     18700   4620.8449      30.760321      0              31.352946      10352934     
     18750   4698.4866      30.27065       0              30.873232      10199625     
     18800   4811.6958      33.577304      0              34.194406      11078644     
     18850   3760.5265      29.531087      0              30.013376      10025116     
     18900   4949.6586      33.083882      0              33.718677      10964327     
     18950   4832.7346      29.815026      0              30.434825      10060705     
     19000   4690.8125      30.882859      0              31.484457      10364966     
     19050   4583.6996      31.21816       0              31.806021      10472876     
     19100   4902.6387      30.768171      0              31.396936      10353626     
     19150   5102.3098      30.777174      0              31.431546      10356918     
     19200   4549.3108      31.960358      0              32.543808      10661055     
     19250   4264.4378      31.920189      0              32.467104      10654757     
     19300   4617.9562      31.868574      0              32.460829      10649846     
     19350   4719.0733      31.956487      0              32.561709      10662887     
     19400   4197.0355      32.156624      0              32.694895      10696069     
     19450   4734.9759      29.927528      0              30.53479       10137579     
     19500   4173.3916      31.003951      0              31.53919       10396295     
     19550   3483.3767      31.613392      0              32.060136      10563839     
     19600   3369.3213      32.66341       0              33.095526      10847428     
     19650   3110.894       30.808967      0              31.20794       10331143     
     19700   3630.2295      33.390722      0              33.8563        11026117     
     19750   2964.4553      29.790872      0              30.171064      10089826     
     19800   3485.9713      31.368947      0              31.816024      10517910     
     19850   4184.7984      31.485799      0              32.022501      10560185     
     19900   4194.8715      31.142599      0              31.680592      10438651     
     19950   3815.6308      30.393428      0              30.882783      10229711     
     20000   3988.2914      30.96465       0              31.47615       10397410     
Loop time of 231.963 on 3584 procs for 20000 steps with 128 atoms

Performance: 3.725 ns/day, 6.443 hours/ns, 86.221 timesteps/s, 11.036 katom-step/s
14.7% CPU use with 3584 MPI tasks x 1 OpenMP threads

MPI task timing breakdown:
Section |  min time  |  avg time  |  max time  |%varavg| %total
---------------------------------------------------------------
Pair    | 0.13344    | 0.29906    | 5.4554     | 102.4 |  0.13
Neigh   | 0.19056    | 0.22833    | 0.53889    |   6.4 |  0.10
Comm    | 119.21     | 138.67     | 186.52     | 132.6 | 59.78
Output  | 4.1497     | 5.196      | 5.5963     |  13.5 |  2.24
Modify  | 0.12033    | 0.14253    | 0.26196    |   5.6 |  0.06
Other   |            | 87.43      |            |       | 37.69

Nlocal:      0.0357143 ave           1 max           0 min
Histogram: 3456 0 0 0 0 0 0 0 0 128
Nghost:        73.3719 ave          91 max          56 min
Histogram: 135 105 463 535 554 649 479 163 362 139
Neighs:        4.36775 ave          22 max           0 min
Histogram: 2369 0 4 48 213 478 245 160 54 13
FullNghs:      0.94308 ave          29 max           0 min
Histogram: 3456 0 0 0 0 0 0 0 75 53

Total # of neighbors = 17389
Ave neighs/atom = 135.85156
Neighbor list builds = 20000
Dangerous builds = 20000
Total wall time: 0:03:52
START OF JOBSPEC
{"resources": [{"type": "node", "count": 64, "with": [{"type": "slot", "count": 56, "with": [{"type": "core", "count": 1}], "label": "task"}]}], "tasks": [{"command": ["lmp", "-k", "on", "-sf", "kk", "-pk", "kokkos", "newton", "on", "neigh", "half", "-in", "in.snap.test", "-var", "snapdir", "2J8_W.SNAP", "-v", "x", "128", "-v", "y", "128", "-v", "z", "128", "-var", "nsteps", "20000"], "slot": "task", "count": {"per_slot": 1}}], "attributes": {"system": {"duration": 0, "cwd": "/code", "shell": {"options": {"rlimit": {"cpu": -1, "fsize": -1, "data": -1, "stack": 8388608, "core": -1, "nofile": 1048576, "as": -1, "rss": -1, "nproc": -1}, "cpu-affinity": "per-task"}}}, "user": {"study_id": "lammps-64-iter-4"}}, "version": 1}
START OF EVENTLOG
{"timestamp":1724388854.6404819,"name":"init"}
{"timestamp":1724388854.6413007,"name":"starting"}
{"timestamp":1724388854.6763661,"name":"shell.init","context":{"service":"0-shell-f5QRWeNfR","leader-rank":0,"size":64}}
{"timestamp":1724388854.8246706,"name":"shell.start","context":{"taskmap":{"version":1,"map":[[0,64,56,1]]}}}
{"timestamp":1724389094.7316451,"name":"shell.task-exit","context":{"localid":46,"rank":46,"state":"Exited","pid":460,"wait_status":0,"signaled":0,"exitcode":0}}
{"timestamp":1724389094.9631894,"name":"complete","context":{"status":0}}
{"timestamp":1724389094.963239,"name":"done"}

