WARNING on proc 0: Cannot open log.lammps for writing: Read-only file system (src/lammps.cpp:511)
LAMMPS (17 Apr 2024 - Development - a8687b5)
KOKKOS mode with Kokkos version 4.3.1 is enabled (src/KOKKOS/kokkos.cpp:72)
  will use up to 1 GPU(s) per node
  using 1 OpenMP thread(s) per MPI task
Reading data file ...
  triclinic box = (0 0 0) to (22.326 11.1412 13.778966) with tilt (0 -5.02603 0)
  4 by 4 by 4 MPI processor grid
  reading atoms ...
  304 atoms
  reading velocities ...
  304 velocities
  read_data CPU = 0.038 seconds
Replication is creating a 64x64x32 = 131072 times larger system...
  triclinic box = (0 0 0) to (1428.864 713.0368 440.92691) with tilt (0 -160.83296 0)
  8 by 4 by 2 MPI processor grid
  bounding box image = (0 -1 -1) to (0 1 1)
  bounding box extra memory = 0.03 MB
  average # of replicas added to proc = 2715.83 out of 131072 (2.07%)
  39845888 atoms
  replicate CPU = 0.141 seconds
Neighbor list info ...
  update: every = 20 steps, delay = 0 steps, check = no
  max neighbors/atom: 2000, page size: 100000
  master list distance cutoff = 11
  ghost atom cutoff = 11
  binsize = 11, bins = 145 65 41
  2 neighbor lists, perpetual/occasional/extra = 2 0 0
  (1) pair reaxff/kk, perpetual
      attributes: half, newton off, ghost, kokkos_device
      pair build: half/bin/newtoff/ghost/kk/device
      stencil: full/ghost/bin/3d
      bin: kk/device
  (2) fix qeq/reax/kk, perpetual
      attributes: full, newton off, kokkos_device
      pair build: full/bin/kk/device
      stencil: full/bin/3d
      bin: kk/device
Setting up Verlet run ...
  Unit style    : real
  Current step  : 0
  Time step     : 0.1
Per MPI rank memory allocation (min/avg/max) = 6784 | 6784 | 6784 Mbytes
   Step          Temp          PotEng         Press          E_vdwl         E_coul         Volume    
         0   300           -113.27833      439.02042     -111.57687     -1.7014647      4.4923072e+08
        10   300.76708     -113.28045      807.30081     -111.57901     -1.7014362      4.4923072e+08
        20   302.42351     -113.28524      1696.978      -111.58392     -1.7013253      4.4923072e+08
        30   302.57589     -113.28557      4297.9287     -111.58447     -1.7010962      4.4923072e+08
        40   300.62224     -113.27967      6393.3161     -111.5789      -1.700769       4.4923072e+08
        50   297.41891     -113.27008      6471.2283     -111.56968     -1.7004025      4.4923072e+08
        60   294.72953     -113.26202      6185.6789     -111.56199     -1.7000319      4.4923072e+08
        70   294.66681     -113.26179      6831.1821     -111.56213     -1.6996548      4.4923072e+08
        80   297.78809     -113.27107      8233.8774     -111.5718      -1.699276       4.4923072e+08
        90   301.67959     -113.28267      9372.1047     -111.58373     -1.6989385      4.4923072e+08
       100   302.56512     -113.28525      10370.575     -111.58656     -1.698695       4.4923072e+08
Loop time of 52.3973 on 64 procs for 100 steps with 39845888 atoms

Performance: 0.016 ns/day, 1455.480 hours/ns, 1.908 timesteps/s, 76.046 Matom-step/s
82.7% CPU use with 64 MPI tasks x 1 OpenMP threads

MPI task timing breakdown:
Section |  min time  |  avg time  |  max time  |%varavg| %total
---------------------------------------------------------------
Pair    | 8.7315     | 8.7906     | 8.8969     |   1.4 | 16.78
Neigh   | 1.1543     | 1.3107     | 1.7629     |  13.6 |  2.50
Comm    | 4.0543     | 4.2088     | 4.3348     |   3.9 |  8.03
Output  | 0.020485   | 0.065966   | 0.16081    |  17.8 |  0.13
Modify  | 37.359     | 37.801     | 37.979     |   2.5 | 72.14
Other   |            | 0.2199     |            |       |  0.42

Nlocal:         622592 ave      622645 max      622556 min
Histogram: 3 7 11 11 12 11 3 3 1 2
Nghost:         245629 ave      245690 max      245561 min
Histogram: 2 2 5 10 9 10 11 8 6 1
Neighs:    1.62762e+08 ave 1.62776e+08 max 1.62754e+08 min
Histogram: 6 11 9 7 10 10 5 3 1 2
FullNghs:  3.05497e+08 ave 3.05521e+08 max 3.05479e+08 min
Histogram: 6 8 9 9 8 11 7 2 2 2

Total # of neighbors = 1.9551784e+10
Ave neighs/atom = 490.68511
Neighbor list builds = 5
Dangerous builds not checked
Total wall time: 0:01:05
START OF JOBSPEC
{"resources": [{"type": "node", "count": 8, "with": [{"type": "slot", "count": 8, "with": [{"type": "core", "count": 1}, {"type": "gpu", "count": 1}], "label": "task"}]}], "tasks": [{"command": ["singularity", "exec", "--nv", "--pwd", "/code", "--env", "FI_PROVIDER=tcp,self", "/opt/containers/metric-lammps-gpu_google-gpu.sif", "/opt/lammps/build/lmp", "-k", "on", "g", "1", "-sf", "kk", "-pk", "kokkos", "cuda/aware", "off", "newton", "on", "neigh", "half", "-in", "in.reaxff.hns", "-v", "x", "64", "-v", "y", "64", "-v", "z", "32", "-in", "in.reaxff.hns", "-nocite"], "slot": "task", "count": {"per_slot": 1}}], "attributes": {"system": {"duration": 0, "cwd": "/home/sochat1_llnl_gov", "shell": {"options": {"rlimit": {"cpu": -1, "fsize": -1, "data": -1, "stack": 8388608, "core": 0, "nofile": 1048576, "as": -1, "rss": -1, "nproc": -1}, "gpu-affinity": "per-task", "cpu-affinity": "per-task"}}}, "user": {"study_id": "lammps-reax-8-iter-3"}}, "version": 1}
START OF EVENTLOG
{"timestamp":1725755822.4134121,"name":"init"}
{"timestamp":1725755822.4143724,"name":"starting"}
{"timestamp":1725755822.4343693,"name":"shell.init","context":{"service":"501043911-shell-f3WEx4Aij","leader-rank":0,"size":8}}
{"timestamp":1725755822.4585161,"name":"shell.start","context":{"taskmap":{"version":1,"map":[[0,8,8,1]]}}}
{"timestamp":1725755890.4115,"name":"shell.task-exit","context":{"localid":6,"rank":30,"state":"Exited","pid":13525,"wait_status":0,"signaled":0,"exitcode":0}}
{"timestamp":1725755890.8976274,"name":"complete","context":{"status":0}}
{"timestamp":1725755890.8976552,"name":"done"}

