LAMMPS (17 Apr 2024 - Development - a8687b5)
KOKKOS mode with Kokkos version 4.3.1 is enabled (src/KOKKOS/kokkos.cpp:72)
  will use up to 8 GPU(s) per node
WARNING: Turning off GPU-aware MPI since it is not detected, use '-pk kokkos gpu/aware on' to override (src/KOKKOS/kokkos.cpp:291)
  using 1 OpenMP thread(s) per MPI task
Reading data file ...
  triclinic box = (0 0 0) to (22.326 11.1412 13.778966) with tilt (0 -5.02603 0)
  4 by 4 by 4 MPI processor grid
  reading atoms ...
  304 atoms
  reading velocities ...
  304 velocities
  read_data CPU = 0.018 seconds
Replication is creating a 64x32x32 = 65536 times larger system...
  triclinic box = (0 0 0) to (1428.864 356.5184 440.92691) with tilt (0 -160.83296 0)
  8 by 2 by 4 MPI processor grid
  bounding box image = (0 -1 -1) to (0 1 1)
  bounding box extra memory = 0.03 MB
  average # of replicas added to proc = 1525.67 out of 65536 (2.33%)
  19922944 atoms
  replicate CPU = 0.068 seconds
Neighbor list info ...
  update: every = 20 steps, delay = 0 steps, check = no
  max neighbors/atom: 2000, page size: 100000
  master list distance cutoff = 11
  ghost atom cutoff = 11
  binsize = 11, bins = 145 33 41
  2 neighbor lists, perpetual/occasional/extra = 2 0 0
  (1) pair reaxff/kk, perpetual
      attributes: half, newton off, ghost, kokkos_device
      pair build: half/bin/newtoff/ghost/kk/device
      stencil: full/ghost/bin/3d
      bin: kk/device
  (2) fix qeq/reax/kk, perpetual
      attributes: full, newton off, kokkos_device
      pair build: full/bin/kk/device
      stencil: full/bin/3d
      bin: kk/device
Setting up Verlet run ...
  Unit style    : real
  Current step  : 0
  Time step     : 0.1
Per MPI rank memory allocation (min/avg/max) = 3549 | 3549 | 3549 Mbytes
   Step          Temp          PotEng         Press          E_vdwl         E_coul         Volume    
         0   300           -113.27833      439.02026     -111.57687     -1.7014647      2.2461536e+08
        10   300.76787     -113.28045      806.94586     -111.57901     -1.7014353      2.2461536e+08
        20   302.41894     -113.28523      1697.836      -111.5839      -1.701324       2.2461536e+08
        30   302.57546     -113.28557      4298.5198     -111.58447     -1.7010952      2.2461536e+08
        40   300.64331     -113.27974      6396.7837     -111.57897     -1.7007684      2.2461536e+08
        50   297.45504     -113.27019      6484.6751     -111.56979     -1.7004028      2.2461536e+08
        60   294.75203     -113.26209      6200.511      -111.56205     -1.7000331      2.2461536e+08
        70   294.65379     -113.26175      6838.3493     -111.56209     -1.6996571      2.2461536e+08
        80   297.75343     -113.27097      8234.8228     -111.57169     -1.6992793      2.2461536e+08
        90   301.65876     -113.28261      9374.4941     -111.58366     -1.6989422      2.2461536e+08
       100   302.57974     -113.2853       10365.517     -111.5866      -1.6986992      2.2461536e+08
Loop time of 24.1598 on 64 procs for 100 steps with 19922944 atoms

Performance: 0.036 ns/day, 671.106 hours/ns, 4.139 timesteps/s, 82.463 Matom-step/s
97.5% CPU use with 64 MPI tasks x 1 OpenMP threads

MPI task timing breakdown:
Section |  min time  |  avg time  |  max time  |%varavg| %total
---------------------------------------------------------------
Pair    | 4.5594     | 4.733      | 4.8135     |   3.4 | 19.59
Neigh   | 0.3452     | 0.62739    | 0.73682    |  11.7 |  2.60
Comm    | 1.9223     | 2.011      | 2.1907     |   5.3 |  8.32
Output  | 0.011366   | 0.022712   | 0.036215   |   4.9 |  0.09
Modify  | 16.548     | 16.662     | 16.948     |   2.3 | 68.97
Other   |            | 0.1035     |            |       |  0.43

Nlocal:         311296 ave      311344 max      311254 min
Histogram: 5 4 5 9 16 7 5 7 1 5
Nghost:         161866 ave      161955 max      161778 min
Histogram: 3 2 7 9 10 13 12 4 3 1
Neighs:     8.2767e+07 ave 8.27801e+07 max 8.27544e+07 min
Histogram: 4 3 5 10 12 11 9 4 2 4
FullNghs:  1.52748e+08 ave 1.52773e+08 max 1.52726e+08 min
Histogram: 6 4 5 9 13 8 8 5 1 5

Total # of neighbors = 9.7758959e+09
Ave neighs/atom = 490.68531
Neighbor list builds = 5
Dangerous builds not checked
Total wall time: 0:00:28
START OF JOBSPEC
{"resources": [{"type": "node", "count": 8, "with": [{"type": "slot", "count": 8, "with": [{"type": "core", "count": 1}, {"type": "gpu", "count": 1}], "label": "task"}]}], "tasks": [{"command": ["lmp", "-k", "on", "g", "8", "-sf", "kk", "-pk", "kokkos", "cuda/aware", "off", "newton", "on", "neigh", "half", "-in", "in.reaxff.hns", "-v", "x", "64", "-v", "y", "32", "-v", "z", "32", "-in", "in.reaxff.hns", "-nocite"], "slot": "task", "count": {"per_slot": 1}}], "attributes": {"system": {"duration": 0, "cwd": "/code/lammps/examples/reaxff/HNS", "shell": {"options": {"rlimit": {"cpu": -1, "fsize": -1, "data": -1, "stack": 8388608, "core": -1, "nofile": 1048576, "as": -1, "rss": -1, "nproc": -1}, "cpu-affinity": "per-task"}}}, "user": {"study_id": "lammps-reax-8-iter-2"}}, "version": 1}
START OF EVENTLOG
{"timestamp":1725079464.4565194,"name":"init"}
{"timestamp":1725079464.4573233,"name":"starting"}
{"timestamp":1725079464.4741428,"name":"shell.init","context":{"service":"0-shell-frE8KtKZ","leader-rank":0,"size":8}}
{"timestamp":1725079464.5046437,"name":"shell.start","context":{"taskmap":{"version":1,"map":[[0,8,8,1]]}}}
{"timestamp":1725079494.3011181,"name":"shell.task-exit","context":{"localid":6,"rank":30,"state":"Exited","pid":174,"wait_status":0,"signaled":0,"exitcode":0}}
{"timestamp":1725079494.6249149,"name":"complete","context":{"status":0}}
{"timestamp":1725079494.6249497,"name":"done"}

