Start time: 1725150898
LAMMPS (17 Apr 2024 - Development - a8687b5)
KOKKOS mode with Kokkos version 4.3.1 is enabled (src/KOKKOS/kokkos.cpp:72)
  will use up to 8 GPU(s) per node
WARNING: Turning off GPU-aware MPI since it is not detected, use '-pk kokkos gpu/aware on' to override (src/KOKKOS/kokkos.cpp:291)
  using 1 OpenMP thread(s) per MPI task
Reading data file ...
  triclinic box = (0 0 0) to (22.326 11.1412 13.778966) with tilt (0 -5.02603 0)
  4 by 4 by 4 MPI processor grid
  reading atoms ...
  304 atoms
  reading velocities ...
  304 velocities
  read_data CPU = 0.044 seconds
Replication is creating a 64x64x32 = 131072 times larger system...
  triclinic box = (0 0 0) to (1428.864 713.0368 440.92691) with tilt (0 -160.83296 0)
  8 by 4 by 2 MPI processor grid
  bounding box image = (0 -1 -1) to (0 1 1)
  bounding box extra memory = 0.03 MB
  average # of replicas added to proc = 2715.83 out of 131072 (2.07%)
  39845888 atoms
  replicate CPU = 0.120 seconds
Neighbor list info ...
  update: every = 20 steps, delay = 0 steps, check = no
  max neighbors/atom: 2000, page size: 100000
  master list distance cutoff = 11
  ghost atom cutoff = 11
  binsize = 11, bins = 145 65 41
  2 neighbor lists, perpetual/occasional/extra = 2 0 0
  (1) pair reaxff/kk, perpetual
      attributes: half, newton off, ghost, kokkos_device
      pair build: half/bin/newtoff/ghost/kk/device
      stencil: full/ghost/bin/3d
      bin: kk/device
  (2) fix qeq/reax/kk, perpetual
      attributes: full, newton off, kokkos_device
      pair build: full/bin/kk/device
      stencil: full/bin/3d
      bin: kk/device
Setting up Verlet run ...
  Unit style    : real
  Current step  : 0
  Time step     : 0.1
Per MPI rank memory allocation (min/avg/max) = 6784 | 6784 | 6784 Mbytes
   Step          Temp          PotEng         Press          E_vdwl         E_coul         Volume    
         0   300           -113.27833      439.02037     -111.57687     -1.7014647      4.4923072e+08
        10   300.76708     -113.28045      807.30083     -111.57901     -1.7014362      4.4923072e+08
        20   302.42351     -113.28524      1696.9778     -111.58392     -1.7013253      4.4923072e+08
        30   302.57589     -113.28557      4297.929      -111.58447     -1.7010962      4.4923072e+08
        40   300.62224     -113.27967      6393.3263     -111.5789      -1.7007689      4.4923072e+08
        50   297.41891     -113.27008      6471.1592     -111.56968     -1.7004026      4.4923072e+08
        60   294.72953     -113.26202      6185.6855     -111.56199     -1.7000318      4.4923072e+08
        70   294.66681     -113.26179      6831.2577     -111.56213     -1.6996546      4.4923072e+08
        80   297.78809     -113.27107      8233.8619     -111.5718      -1.6992761      4.4923072e+08
        90   301.6796      -113.28267      9372.0751     -111.58373     -1.6989385      4.4923072e+08
       100   302.56513     -113.28525      10370.519     -111.58656     -1.6986951      4.4923072e+08
Loop time of 58.7806 on 64 procs for 100 steps with 39845888 atoms

Performance: 0.015 ns/day, 1632.795 hours/ns, 1.701 timesteps/s, 67.787 Matom-step/s
96.3% CPU use with 64 MPI tasks x 1 OpenMP threads

MPI task timing breakdown:
Section |  min time  |  avg time  |  max time  |%varavg| %total
---------------------------------------------------------------
Pair    | 8.6469     | 8.9505     | 9.2891     |   4.2 | 15.23
Neigh   | 0.71439    | 1.1591     | 1.3236     |  14.9 |  1.97
Comm    | 4.1331     | 5.1267     | 5.9331     |  30.2 |  8.72
Output  | 0.0035255  | 0.28229    | 0.3659     |  12.9 |  0.48
Modify  | 42.468     | 43.08      | 43.952     |   8.7 | 73.29
Other   |            | 0.1821     |            |       |  0.31

Nlocal:         622592 ave      622645 max      622556 min
Histogram: 3 7 11 11 12 11 3 3 1 2
Nghost:         245629 ave      245690 max      245561 min
Histogram: 2 2 5 10 9 10 11 8 6 1
Neighs:    1.62762e+08 ave 1.62776e+08 max 1.62754e+08 min
Histogram: 6 11 9 7 10 10 5 3 1 2
FullNghs:  3.05497e+08 ave 3.05521e+08 max 3.05479e+08 min
Histogram: 6 8 9 9 8 11 7 2 2 2

Total # of neighbors = 1.9551784e+10
Ave neighs/atom = 490.68511
Neighbor list builds = 5
Dangerous builds not checked
Total wall time: 0:01:06
End time: 1725150981
Start time: 1725150981
LAMMPS (17 Apr 2024 - Development - a8687b5)
KOKKOS mode with Kokkos version 4.3.1 is enabled (src/KOKKOS/kokkos.cpp:72)
  will use up to 8 GPU(s) per node
WARNING: Turning off GPU-aware MPI since it is not detected, use '-pk kokkos gpu/aware on' to override (src/KOKKOS/kokkos.cpp:291)
  using 1 OpenMP thread(s) per MPI task
Reading data file ...
  triclinic box = (0 0 0) to (22.326 11.1412 13.778966) with tilt (0 -5.02603 0)
  4 by 4 by 4 MPI processor grid
  reading atoms ...
  304 atoms
  reading velocities ...
  304 velocities
  read_data CPU = 0.039 seconds
Replication is creating a 64x32x32 = 65536 times larger system...
  triclinic box = (0 0 0) to (1428.864 356.5184 440.92691) with tilt (0 -160.83296 0)
  8 by 2 by 4 MPI processor grid
  bounding box image = (0 -1 -1) to (0 1 1)
  bounding box extra memory = 0.03 MB
  average # of replicas added to proc = 1525.67 out of 65536 (2.33%)
  19922944 atoms
  replicate CPU = 0.067 seconds
Neighbor list info ...
  update: every = 20 steps, delay = 0 steps, check = no
  max neighbors/atom: 2000, page size: 100000
  master list distance cutoff = 11
  ghost atom cutoff = 11
  binsize = 11, bins = 145 33 41
  2 neighbor lists, perpetual/occasional/extra = 2 0 0
  (1) pair reaxff/kk, perpetual
      attributes: half, newton off, ghost, kokkos_device
      pair build: half/bin/newtoff/ghost/kk/device
      stencil: full/ghost/bin/3d
      bin: kk/device
  (2) fix qeq/reax/kk, perpetual
      attributes: full, newton off, kokkos_device
      pair build: full/bin/kk/device
      stencil: full/bin/3d
      bin: kk/device
Setting up Verlet run ...
  Unit style    : real
  Current step  : 0
  Time step     : 0.1
Per MPI rank memory allocation (min/avg/max) = 3549 | 3549 | 3549 Mbytes
   Step          Temp          PotEng         Press          E_vdwl         E_coul         Volume    
         0   300           -113.27833      439.02026     -111.57687     -1.7014647      2.2461536e+08
        10   300.76787     -113.28045      806.94585     -111.57901     -1.7014353      2.2461536e+08
        20   302.41894     -113.28523      1697.8359     -111.5839      -1.701324       2.2461536e+08
        30   302.57546     -113.28557      4298.5216     -111.58447     -1.7010952      2.2461536e+08
        40   300.64332     -113.27974      6396.7984     -111.57897     -1.7007683      2.2461536e+08
        50   297.45504     -113.27019      6484.6673     -111.56979     -1.7004028      2.2461536e+08
        60   294.75203     -113.26209      6200.5629     -111.56205     -1.700033       2.2461536e+08
        70   294.6538      -113.26175      6838.3769     -111.56209     -1.6996571      2.2461536e+08
        80   297.75343     -113.27097      8234.8515     -111.57169     -1.6992792      2.2461536e+08
        90   301.65875     -113.28261      9374.4418     -111.58366     -1.6989423      2.2461536e+08
       100   302.57975     -113.2853       10365.445     -111.5866      -1.6986994      2.2461536e+08
Loop time of 32.5381 on 64 procs for 100 steps with 19922944 atoms

Performance: 0.027 ns/day, 903.837 hours/ns, 3.073 timesteps/s, 61.230 Matom-step/s
95.9% CPU use with 64 MPI tasks x 1 OpenMP threads

MPI task timing breakdown:
Section |  min time  |  avg time  |  max time  |%varavg| %total
---------------------------------------------------------------
Pair    | 4.5394     | 4.7513     | 4.9436     |   3.1 | 14.60
Neigh   | 0.37943    | 0.64151    | 0.76023    |   8.9 |  1.97
Comm    | 2.3557     | 2.9221     | 3.4897     |  23.5 |  8.98
Output  | 0.0030349  | 0.16041    | 0.22059    |  10.7 |  0.49
Modify  | 23.592     | 23.96      | 24.475     |   6.7 | 73.64
Other   |            | 0.1025     |            |       |  0.32

Nlocal:         311296 ave      311344 max      311254 min
Histogram: 5 4 5 9 16 7 5 7 1 5
Nghost:         161866 ave      161955 max      161778 min
Histogram: 3 2 7 9 10 13 12 4 3 1
Neighs:     8.2767e+07 ave 8.27801e+07 max 8.27544e+07 min
Histogram: 4 3 5 10 12 11 9 4 2 4
FullNghs:  1.52748e+08 ave 1.52773e+08 max 1.52726e+08 min
Histogram: 6 4 5 9 13 8 8 5 1 5

Total # of neighbors = 9.7758959e+09
Ave neighs/atom = 490.68531
Neighbor list builds = 5
Dangerous builds not checked
Total wall time: 0:00:38
End time: 1725151024
