LAMMPS (17 Apr 2024 - Development - a8687b5)
OMP_NUM_THREADS environment is not set. Defaulting to 1 thread. (src/comm.cpp:98)
  using 1 OpenMP thread(s) per MPI task
Reading data file ...
  triclinic box = (0 0 0) to (22.326 11.1412 13.778966) with tilt (0 -5.02603 0)
  16 by 12 by 16 MPI processor grid
  reading atoms ...
  304 atoms
  reading velocities ...
  304 velocities
  read_data CPU = 0.312 seconds
Replication is creating a 64x64x32 = 131072 times larger system...
  triclinic box = (0 0 0) to (1428.864 713.0368 440.92691) with tilt (0 -160.83296 0)
  24 by 16 by 8 MPI processor grid
  bounding box image = (0 -1 -1) to (0 1 1)
  bounding box extra memory = 0.03 MB
  average # of replicas added to proc = 124.34 out of 131072 (0.09%)
  39845888 atoms
  replicate CPU = 0.190 seconds
Neighbor list info ...
  update: every = 20 steps, delay = 0 steps, check = no
  max neighbors/atom: 2000, page size: 100000
  master list distance cutoff = 11
  ghost atom cutoff = 11
  binsize = 5.5, bins = 290 130 81
  2 neighbor lists, perpetual/occasional/extra = 2 0 0
  (1) pair reaxff, perpetual
      attributes: half, newton off, ghost
      pair build: half/bin/ghost/newtoff
      stencil: full/ghost/bin/3d
      bin: standard
  (2) fix qeq/reax, perpetual, copy from (1)
      attributes: half, newton off
      pair build: copy
      stencil: none
      bin: none
Setting up Verlet run ...
  Unit style    : real
  Current step  : 0
  Time step     : 0.1
Per MPI rank memory allocation (min/avg/max) = 632.8 | 640 | 644.5 Mbytes
   Step          Temp          PotEng         Press          E_vdwl         E_coul         Volume    
         0   300           -113.27833      439.02048     -111.57687     -1.7014647      4.4923072e+08
        10   300.76708     -113.28045      807.30078     -111.57901     -1.7014362      4.4923072e+08
        20   302.42351     -113.28524      1696.9908     -111.58392     -1.7013253      4.4923072e+08
        30   302.57588     -113.28557      4297.9273     -111.58447     -1.7010962      4.4923072e+08
        40   300.62223     -113.27967      6393.3855     -111.5789      -1.7007688      4.4923072e+08
        50   297.4189      -113.27008      6471.136      -111.56968     -1.7004027      4.4923072e+08
        60   294.72952     -113.26202      6185.6816     -111.56199     -1.7000319      4.4923072e+08
        70   294.6668      -113.26179      6831.231      -111.56213     -1.6996547      4.4923072e+08
        80   297.78808     -113.27107      8233.8728     -111.5718      -1.699276       4.4923072e+08
        90   301.67958     -113.28267      9372.0419     -111.58373     -1.6989386      4.4923072e+08
       100   302.56511     -113.28525      10370.551     -111.58656     -1.698695       4.4923072e+08
Loop time of 137.088 on 3072 procs for 100 steps with 39845888 atoms

Performance: 0.006 ns/day, 3807.986 hours/ns, 0.729 timesteps/s, 29.066 Matom-step/s
99.8% CPU use with 3072 MPI tasks x 1 OpenMP threads

MPI task timing breakdown:
Section |  min time  |  avg time  |  max time  |%varavg| %total
---------------------------------------------------------------
Pair    | 70.39      | 76.047     | 81.483     |  18.5 | 55.47
Neigh   | 0.81585    | 0.84724    | 0.91776    |   1.2 |  0.62
Comm    | 0.26996    | 4.5318     | 10.376     |  81.4 |  3.31
Output  | 0.08351    | 0.29964    | 0.51712    |  15.9 |  0.22
Modify  | 54.338     | 55.349     | 56.303     |   7.0 | 40.37
Other   |            | 0.01297    |            |       |  0.01

Nlocal:        12970.7 ave       13089 max       12786 min
Histogram: 758 266 0 0 0 0 0 430 623 995
Nghost:        24573.6 ave       24774 max       24280 min
Histogram: 852 172 0 0 0 0 0 935 156 957
Neighs:    3.89485e+06 ave 3.92791e+06 max 3.84159e+06 min
Histogram: 585 439 0 0 0 0 0 261 786 1001

Total # of neighbors = 1.1964972e+10
Ave neighs/atom = 300.28122
Neighbor list builds = 5
Dangerous builds not checked
Total wall time: 0:02:21
START OF JOBSPEC
{"resources": [{"type": "node", "count": 32, "with": [{"type": "slot", "count": 96, "with": [{"type": "core", "count": 1}], "label": "task"}]}], "tasks": [{"command": ["/usr/bin/lmp", "-v", "x", "64", "-v", "y", "64", "-v", "z", "32", "-in", "in.reaxff.hns", "-nocite"], "slot": "task", "count": {"per_slot": 1}}], "attributes": {"system": {"duration": 0, "cwd": "/code", "shell": {"options": {"rlimit": {"cpu": -1, "fsize": -1, "data": -1, "stack": 10485760, "core": -1, "nofile": 1048576, "as": -1, "rss": -1, "nproc": -1}, "cpu-affinity": "per-task"}}}, "user": {"study_id": "lammps-reax-32-iter-4"}}, "version": 1}
START OF EVENTLOG
{"timestamp":1724571513.7658265,"name":"init"}
{"timestamp":1724571513.766463,"name":"starting"}
{"timestamp":1724571513.7901516,"name":"shell.init","context":{"service":"0-shell-f4y5ACfFu","leader-rank":0,"size":32}}
{"timestamp":1724571514.0909572,"name":"shell.start","context":{"taskmap":{"version":1,"map":[[0,32,96,1]]}}}
{"timestamp":1724571666.0075319,"name":"shell.task-exit","context":{"localid":88,"rank":2488,"state":"Exited","pid":821,"wait_status":0,"signaled":0,"exitcode":0}}
{"timestamp":1724571666.4970677,"name":"complete","context":{"status":0}}
{"timestamp":1724571666.4971066,"name":"done"}

