Start time: 1725164620
LAMMPS (17 Apr 2024 - Development - a8687b5)
KOKKOS mode with Kokkos version 4.3.1 is enabled (src/KOKKOS/kokkos.cpp:72)
  will use up to 8 GPU(s) per node
WARNING: Turning off GPU-aware MPI since it is not detected, use '-pk kokkos gpu/aware on' to override (src/KOKKOS/kokkos.cpp:291)
  using 1 OpenMP thread(s) per MPI task
Reading data file ...
  triclinic box = (0 0 0) to (22.326 11.1412 13.778966) with tilt (0 -5.02603 0)
  8 by 4 by 8 MPI processor grid
  reading atoms ...
  304 atoms
  reading velocities ...
  304 velocities
  read_data CPU = 0.039 seconds
Replication is creating a 64x64x32 = 131072 times larger system...
  triclinic box = (0 0 0) to (1428.864 713.0368 440.92691) with tilt (0 -160.83296 0)
  8 by 8 by 4 MPI processor grid
  bounding box image = (0 -1 -1) to (0 1 1)
  bounding box extra memory = 0.03 MB
  average # of replicas added to proc = 835.00 out of 131072 (0.64%)
  39845888 atoms
  replicate CPU = 0.100 seconds
Neighbor list info ...
  update: every = 20 steps, delay = 0 steps, check = no
  max neighbors/atom: 2000, page size: 100000
  master list distance cutoff = 11
  ghost atom cutoff = 11
  binsize = 11, bins = 145 65 41
  2 neighbor lists, perpetual/occasional/extra = 2 0 0
  (1) pair reaxff/kk, perpetual
      attributes: half, newton off, ghost, kokkos_device
      pair build: half/bin/newtoff/ghost/kk/device
      stencil: full/ghost/bin/3d
      bin: kk/device
  (2) fix qeq/reax/kk, perpetual
      attributes: full, newton off, kokkos_device
      pair build: full/bin/kk/device
      stencil: full/bin/3d
      bin: kk/device
Setting up Verlet run ...
  Unit style    : real
  Current step  : 0
  Time step     : 0.1
Per MPI rank memory allocation (min/avg/max) = 1866 | 1866 | 1873 Mbytes
   Step          Temp          PotEng         Press          E_vdwl         E_coul         Volume    
         0   300           -113.27833      439.02038     -111.57687     -1.7014647      4.4923072e+08
        10   300.76708     -113.28045      807.29856     -111.57901     -1.7014362      4.4923072e+08
        20   302.42351     -113.28524      1696.9942     -111.58392     -1.7013253      4.4923072e+08
        30   302.5759      -113.28557      4297.9281     -111.58447     -1.7010963      4.4923072e+08
        40   300.62224     -113.27967      6393.3467     -111.5789      -1.7007689      4.4923072e+08
        50   297.4189      -113.27008      6471.2117     -111.56968     -1.7004025      4.4923072e+08
        60   294.72952     -113.26202      6185.6602     -111.56199     -1.7000319      4.4923072e+08
        70   294.66681     -113.26179      6831.183      -111.56213     -1.6996547      4.4923072e+08
        80   297.78809     -113.27107      8233.8598     -111.5718      -1.699276       4.4923072e+08
        90   301.67958     -113.28267      9372.0626     -111.58373     -1.6989386      4.4923072e+08
       100   302.5651      -113.28525      10370.541     -111.58656     -1.6986951      4.4923072e+08
Loop time of 13.9897 on 256 procs for 100 steps with 39845888 atoms

Performance: 0.062 ns/day, 388.603 hours/ns, 7.148 timesteps/s, 284.823 Matom-step/s
95.0% CPU use with 256 MPI tasks x 1 OpenMP threads

MPI task timing breakdown:
Section |  min time  |  avg time  |  max time  |%varavg| %total
---------------------------------------------------------------
Pair    | 2.4297     | 2.5924     | 2.6709     |   3.6 | 18.53
Neigh   | 0.16936    | 0.31299    | 0.39888    |  10.2 |  2.24
Comm    | 1.0937     | 1.1875     | 1.3524     |   5.7 |  8.49
Output  | 0.0088917  | 0.033585   | 0.044807   |   2.7 |  0.24
Modify  | 9.6491     | 9.806      | 9.9824     |   2.4 | 70.09
Other   |            | 0.05722    |            |       |  0.41

Nlocal:         155648 ave      155688 max      155612 min
Histogram: 2 17 25 53 56 43 23 19 9 9
Nghost:         106807 ave      106862 max      106747 min
Histogram: 9 10 15 26 48 57 45 25 14 7
Neighs:    4.22133e+07 ave  4.2224e+07 max 4.22041e+07 min
Histogram: 3 20 25 59 57 34 16 25 11 6
FullNghs:  7.63742e+07 ave 7.63937e+07 max 7.63564e+07 min
Histogram: 4 16 27 55 57 35 19 24 13 6

Total # of neighbors = 1.9551784e+10
Ave neighs/atom = 490.68511
Neighbor list builds = 5
Dangerous builds not checked
Total wall time: 0:00:17
End time: 1725164642
Start time: 1725164642
LAMMPS (17 Apr 2024 - Development - a8687b5)
KOKKOS mode with Kokkos version 4.3.1 is enabled (src/KOKKOS/kokkos.cpp:72)
  will use up to 8 GPU(s) per node
WARNING: Turning off GPU-aware MPI since it is not detected, use '-pk kokkos gpu/aware on' to override (src/KOKKOS/kokkos.cpp:291)
  using 1 OpenMP thread(s) per MPI task
Reading data file ...
  triclinic box = (0 0 0) to (22.326 11.1412 13.778966) with tilt (0 -5.02603 0)
  8 by 4 by 8 MPI processor grid
  reading atoms ...
  304 atoms
  reading velocities ...
  304 velocities
  read_data CPU = 0.039 seconds
Replication is creating a 64x32x32 = 65536 times larger system...
  triclinic box = (0 0 0) to (1428.864 356.5184 440.92691) with tilt (0 -160.83296 0)
  16 by 4 by 4 MPI processor grid
  bounding box image = (0 -1 -1) to (0 1 1)
  bounding box extra memory = 0.03 MB
  average # of replicas added to proc = 422.65 out of 65536 (0.64%)
  19922944 atoms
  replicate CPU = 0.085 seconds
Neighbor list info ...
  update: every = 20 steps, delay = 0 steps, check = no
  max neighbors/atom: 2000, page size: 100000
  master list distance cutoff = 11
  ghost atom cutoff = 11
  binsize = 11, bins = 145 33 41
  2 neighbor lists, perpetual/occasional/extra = 2 0 0
  (1) pair reaxff/kk, perpetual
      attributes: half, newton off, ghost, kokkos_device
      pair build: half/bin/newtoff/ghost/kk/device
      stencil: full/ghost/bin/3d
      bin: kk/device
  (2) fix qeq/reax/kk, perpetual
      attributes: full, newton off, kokkos_device
      pair build: full/bin/kk/device
      stencil: full/bin/3d
      bin: kk/device
Setting up Verlet run ...
  Unit style    : real
  Current step  : 0
  Time step     : 0.1
Per MPI rank memory allocation (min/avg/max) = 988.8 | 989 | 992.7 Mbytes
   Step          Temp          PotEng         Press          E_vdwl         E_coul         Volume    
         0   300           -113.27833      439.01507     -111.57687     -1.7014647      2.2461536e+08
        10   300.76787     -113.28045      806.94934     -111.57901     -1.7014353      2.2461536e+08
        20   302.41893     -113.28523      1697.8368     -111.5839      -1.701324       2.2461536e+08
        30   302.57546     -113.28557      4298.5122     -111.58447     -1.7010952      2.2461536e+08
        40   300.64331     -113.27974      6396.8238     -111.57897     -1.7007683      2.2461536e+08
        50   297.45504     -113.27019      6484.7099     -111.56979     -1.7004027      2.2461536e+08
        60   294.75203     -113.26209      6200.4883     -111.56205     -1.7000332      2.2461536e+08
        70   294.65379     -113.26175      6838.3499     -111.56209     -1.6996571      2.2461536e+08
        80   297.75343     -113.27097      8234.8411     -111.57169     -1.6992793      2.2461536e+08
        90   301.65876     -113.28261      9374.4359     -111.58366     -1.6989423      2.2461536e+08
       100   302.57974     -113.2853       10365.479     -111.5866      -1.6986993      2.2461536e+08
Loop time of 8.77088 on 256 procs for 100 steps with 19922944 atoms

Performance: 0.099 ns/day, 243.635 hours/ns, 11.401 timesteps/s, 227.149 Matom-step/s
97.9% CPU use with 256 MPI tasks x 1 OpenMP threads

MPI task timing breakdown:
Section |  min time  |  avg time  |  max time  |%varavg| %total
---------------------------------------------------------------
Pair    | 1.3956     | 1.4872     | 1.5334     |   2.5 | 16.96
Neigh   | 0.083765   | 0.15107    | 0.19365    |   7.3 |  1.72
Comm    | 0.69781    | 0.77472    | 0.90383    |   4.9 |  8.83
Output  | 0.013438   | 0.02937    | 0.042418   |   3.7 |  0.33
Modify  | 6.1945     | 6.2943     | 6.3886     |   1.6 | 71.76
Other   |            | 0.03424    |            |       |  0.39

Nlocal:          77824 ave       77861 max       77790 min
Histogram: 2 2 31 46 61 62 34 13 3 2
Nghost:        68517.6 ave       68569 max       68462 min
Histogram: 2 7 21 29 49 71 39 23 11 4
Neighs:     2.1545e+07 ave 2.15554e+07 max 2.15346e+07 min
Histogram: 1 2 16 46 65 61 46 15 2 2
FullNghs:  3.81871e+07 ave 3.82053e+07 max 3.81705e+07 min
Histogram: 1 3 34 45 58 60 38 12 3 2

Total # of neighbors = 9.7758959e+09
Ave neighs/atom = 490.68531
Neighbor list builds = 5
Dangerous builds not checked
Total wall time: 0:00:11
End time: 1725164659
