LAMMPS (17 Apr 2024 - Development - a8687b5)
OMP_NUM_THREADS environment is not set. Defaulting to 1 thread. (src/comm.cpp:98)
  using 1 OpenMP thread(s) per MPI task
Reading data file ...
  triclinic box = (0 0 0) to (22.326 11.1412 13.778966) with tilt (0 -5.02603 0)
  16 by 12 by 16 MPI processor grid
  reading atoms ...
  304 atoms
  reading velocities ...
  304 velocities
  read_data CPU = 0.067 seconds
Replication is creating a 64x64x32 = 131072 times larger system...
  triclinic box = (0 0 0) to (1428.864 713.0368 440.92691) with tilt (0 -160.83296 0)
  24 by 16 by 8 MPI processor grid
  bounding box image = (0 -1 -1) to (0 1 1)
  bounding box extra memory = 0.03 MB
  average # of replicas added to proc = 124.34 out of 131072 (0.09%)
  39845888 atoms
  replicate CPU = 0.562 seconds
Neighbor list info ...
  update: every = 20 steps, delay = 0 steps, check = no
  max neighbors/atom: 2000, page size: 100000
  master list distance cutoff = 11
  ghost atom cutoff = 11
  binsize = 5.5, bins = 290 130 81
  2 neighbor lists, perpetual/occasional/extra = 2 0 0
  (1) pair reaxff, perpetual
      attributes: half, newton off, ghost
      pair build: half/bin/ghost/newtoff
      stencil: full/ghost/bin/3d
      bin: standard
  (2) fix qeq/reax, perpetual, copy from (1)
      attributes: half, newton off
      pair build: copy
      stencil: none
      bin: none
Setting up Verlet run ...
  Unit style    : real
  Current step  : 0
  Time step     : 0.1
Per MPI rank memory allocation (min/avg/max) = 632.8 | 640 | 644.5 Mbytes
   Step          Temp          PotEng         Press          E_vdwl         E_coul         Volume    
         0   300           -113.27833      439.02048     -111.57687     -1.7014647      4.4923072e+08
        10   300.76708     -113.28045      807.30078     -111.57901     -1.7014362      4.4923072e+08
        20   302.42351     -113.28524      1696.9908     -111.58392     -1.7013253      4.4923072e+08
        30   302.57588     -113.28557      4297.9273     -111.58447     -1.7010962      4.4923072e+08
        40   300.62223     -113.27967      6393.3858     -111.5789      -1.7007688      4.4923072e+08
        50   297.4189      -113.27008      6471.1194     -111.56968     -1.7004027      4.4923072e+08
        60   294.72952     -113.26202      6185.6317     -111.56199     -1.700032       4.4923072e+08
        70   294.66679     -113.26179      6831.2206     -111.56213     -1.6996547      4.4923072e+08
        80   297.78807     -113.27107      8233.8865     -111.5718      -1.699276       4.4923072e+08
        90   301.67959     -113.28267      9372.0708     -111.58373     -1.6989385      4.4923072e+08
       100   302.56512     -113.28525      10370.603     -111.58656     -1.698695       4.4923072e+08
Loop time of 177.114 on 3072 procs for 100 steps with 39845888 atoms

Performance: 0.005 ns/day, 4919.836 hours/ns, 0.565 timesteps/s, 22.497 Matom-step/s
99.8% CPU use with 3072 MPI tasks x 1 OpenMP threads

MPI task timing breakdown:
Section |  min time  |  avg time  |  max time  |%varavg| %total
---------------------------------------------------------------
Pair    | 71.713     | 79.359     | 85.791     |  22.6 | 44.81
Neigh   | 0.93981    | 0.99533    | 1.0812     |   1.7 |  0.56
Comm    | 0.48032    | 5.1038     | 14.297     | 100.1 |  2.88
Output  | 0.54909    | 0.97341    | 1.2952     |  11.9 |  0.55
Modify  | 88.839     | 90.675     | 93.592     |   8.5 | 51.20
Other   |            | 0.007285   |            |       |  0.00

Nlocal:        12970.7 ave       13089 max       12786 min
Histogram: 758 266 0 0 0 0 0 430 623 995
Nghost:        24573.6 ave       24774 max       24280 min
Histogram: 852 172 0 0 0 0 0 935 156 957
Neighs:    3.89485e+06 ave 3.92791e+06 max 3.84159e+06 min
Histogram: 585 439 0 0 0 0 0 261 786 1001

Total # of neighbors = 1.1964972e+10
Ave neighs/atom = 300.28122
Neighbor list builds = 5
Dangerous builds not checked
Total wall time: 0:03:01
START OF JOBSPEC
{"resources": [{"type": "node", "count": 32, "with": [{"type": "slot", "count": 96, "with": [{"type": "core", "count": 1}], "label": "task"}]}], "tasks": [{"command": ["/usr/bin/lmp", "-v", "x", "64", "-v", "y", "64", "-v", "z", "32", "-in", "in.reaxff.hns", "-nocite"], "slot": "task", "count": {"per_slot": 1}}], "attributes": {"system": {"duration": 0, "cwd": "/code", "shell": {"options": {"rlimit": {"cpu": -1, "fsize": -1, "data": -1, "stack": 8388608, "core": -1, "nofile": 1048576, "as": -1, "rss": -1, "nproc": -1}, "cpu-affinity": "per-task"}}}, "user": {"study_id": "lammps-reax-placement-32-iter-"}}, "version": 1}
START OF EVENTLOG
{"timestamp":1724867544.6352451,"name":"init"}
{"timestamp":1724867544.6359503,"name":"starting"}
{"timestamp":1724867544.6627038,"name":"shell.init","context":{"service":"0-shell-f2A9vnAxo","leader-rank":0,"size":32}}
{"timestamp":1724867545.0459251,"name":"shell.start","context":{"taskmap":{"version":1,"map":[[0,32,96,1]]}}}
{"timestamp":1724867775.3992183,"name":"shell.task-exit","context":{"localid":64,"rank":2944,"state":"Exited","pid":191,"wait_status":0,"signaled":0,"exitcode":0}}
{"timestamp":1724867775.6833761,"name":"complete","context":{"status":0}}
{"timestamp":1724867775.6834245,"name":"done"}

