Start time: 1725067436
WARNING on proc 0: Cannot open log.lammps for writing: Read-only file system (src/lammps.cpp:511)
LAMMPS (17 Apr 2024 - Development - a8687b5)
OMP_NUM_THREADS environment is not set. Defaulting to 1 thread. (src/comm.cpp:98)
  using 1 OpenMP thread(s) per MPI task
Reading data file ...
  triclinic box = (0 0 0) to (22.326 11.1412 13.778966) with tilt (0 -5.02603 0)
  32 by 16 by 24 MPI processor grid
  reading atoms ...
  304 atoms
  reading velocities ...
  304 velocities
  read_data CPU = 0.165 seconds
Replication is creating a 64x64x32 = 131072 times larger system...
  triclinic box = (0 0 0) to (1428.864 713.0368 440.92691) with tilt (0 -160.83296 0)
  32 by 24 by 16 MPI processor grid
  bounding box image = (0 -1 -1) to (0 1 1)
  bounding box extra memory = 0.03 MB
  average # of replicas added to proc = 43.93 out of 131072 (0.03%)
  39845888 atoms
  replicate CPU = 0.220 seconds

CITE-CITE-CITE-CITE-CITE-CITE-CITE-CITE-CITE-CITE-CITE-CITE-CITE

Your simulation uses code contributions which should be cited:
- pair reaxff command: doi:10.1016/j.parco.2011.08.005
- fix qeq/reaxff command: doi:10.1016/j.parco.2011.08.005
The log file lists these citations in BibTeX format.

CITE-CITE-CITE-CITE-CITE-CITE-CITE-CITE-CITE-CITE-CITE-CITE-CITE

Neighbor list info ...
  update: every = 20 steps, delay = 0 steps, check = no
  max neighbors/atom: 2000, page size: 100000
  master list distance cutoff = 11
  ghost atom cutoff = 11
  binsize = 5.5, bins = 290 130 81
  2 neighbor lists, perpetual/occasional/extra = 2 0 0
  (1) pair reaxff, perpetual
      attributes: half, newton off, ghost
      pair build: half/bin/ghost/newtoff
      stencil: full/ghost/bin/3d
      bin: standard
  (2) fix qeq/reax, perpetual, copy from (1)
      attributes: half, newton off
      pair build: copy
      stencil: none
      bin: none
Setting up Verlet run ...
  Unit style    : real
  Current step  : 0
  Time step     : 0.1
Per MPI rank memory allocation (min/avg/max) = 252.6 | 252.8 | 253 Mbytes
   Step          Temp          PotEng         Press          E_vdwl         E_coul         Volume    
         0   300           -113.27833      439.02048     -111.57687     -1.7014647      4.4923072e+08
        10   300.76708     -113.28045      807.30078     -111.57901     -1.7014362      4.4923072e+08
        20   302.42351     -113.28524      1696.9908     -111.58392     -1.7013253      4.4923072e+08
        30   302.57588     -113.28557      4297.9273     -111.58447     -1.7010962      4.4923072e+08
        40   300.62223     -113.27967      6393.3851     -111.5789      -1.7007688      4.4923072e+08
        50   297.4189      -113.27008      6471.1308     -111.56968     -1.7004027      4.4923072e+08
        60   294.72953     -113.26202      6185.7111     -111.56199     -1.7000318      4.4923072e+08
        70   294.6668      -113.26179      6831.2232     -111.56213     -1.6996547      4.4923072e+08
        80   297.78807     -113.27107      8233.8672     -111.5718      -1.699276       4.4923072e+08
        90   301.67958     -113.28267      9372.0856     -111.58373     -1.6989385      4.4923072e+08
       100   302.56511     -113.28525      10370.591     -111.58656     -1.698695       4.4923072e+08
Loop time of 56.2059 on 12288 procs for 100 steps with 39845888 atoms

Performance: 0.015 ns/day, 1561.274 hours/ns, 1.779 timesteps/s, 70.893 Matom-step/s
99.8% CPU use with 12288 MPI tasks x 1 OpenMP threads

MPI task timing breakdown:
Section |  min time  |  avg time  |  max time  |%varavg| %total
---------------------------------------------------------------
Pair    | 20.405     | 23.294     | 25.607     |  12.3 | 41.44
Neigh   | 0.3577     | 0.37424    | 0.45794    |   1.0 |  0.67
Comm    | 0.044294   | 1.3685     | 5.1089     |  63.1 |  2.43
Output  | 0.55514    | 0.7776     | 0.89315    |   4.9 |  1.38
Modify  | 29.366     | 30.389     | 31.201     |   7.0 | 54.07
Other   |            | 0.003265   |            |       |  0.01

Nlocal:        3242.67 ave        3269 max        3209 min
Histogram: 23 549 2171 1246 116 425 2815 3833 1068 42
Nghost:        12107.8 ave       12146 max       12063 min
Histogram: 61 401 1227 1688 1299 1933 3079 1959 573 68
Neighs:    1.07025e+06 ave 1.07789e+06 max 1.06022e+06 min
Histogram: 40 602 2069 1230 171 520 2842 3728 1040 46

Total # of neighbors = 1.3151174e+10
Ave neighs/atom = 330.05097
Neighbor list builds = 5
Dangerous builds not checked
Total wall time: 0:00:58
[1725067507.397794] [cluster-256-hpc-256:82521:0]        mm_posix.c:291  UCX  ERROR shm_unlink(/ucx_shm_posix_2705a14c) failed: No such file or directory
[1725067507.398382] [cluster-256-hpc-256:82982:0]        mm_posix.c:291  UCX  ERROR shm_unlink(/ucx_shm_posix_f424482) failed: No such file or directory
[1725067507.398470] [cluster-256-hpc-256:82982:0]        mm_posix.c:291  UCX  ERROR shm_unlink(/ucx_shm_posix_137f54bd) failed: No such file or directory
[1725067507.398353] [cluster-256-hpc-256:83845:0]        mm_posix.c:291  UCX  ERROR shm_unlink(/ucx_shm_posix_524f69cc) failed: No such file or directory
[1725067507.398434] [cluster-256-hpc-256:83845:0]        mm_posix.c:291  UCX  ERROR shm_unlink(/ucx_shm_posix_66a97afb) failed: No such file or directory
[1725067507.398421] [cluster-256-hpc-256:84479:0]        mm_posix.c:291  UCX  ERROR shm_unlink(/ucx_shm_posix_728fd782) failed: No such file or directory
[1725067507.398498] [cluster-256-hpc-256:84479:0]        mm_posix.c:291  UCX  ERROR shm_unlink(/ucx_shm_posix_4772d279) failed: No such file or directory
[1725067507.398353] [cluster-256-hpc-256:82459:0]        mm_posix.c:291  UCX  ERROR shm_unlink(/ucx_shm_posix_10cd15fa) failed: No such file or directory
[1725067507.398432] [cluster-256-hpc-256:82459:0]        mm_posix.c:291  UCX  ERROR shm_unlink(/ucx_shm_posix_6ab05609) failed: No such file or directory
[1725067507.398369] [cluster-256-hpc-256:82739:0]        mm_posix.c:291  UCX  ERROR shm_unlink(/ucx_shm_posix_561e3dba) failed: No such file or directory
[1725067507.398448] [cluster-256-hpc-256:82739:0]        mm_posix.c:291  UCX  ERROR shm_unlink(/ucx_shm_posix_7be17d88) failed: No such file or directory
[1725067507.398438] [cluster-256-hpc-256:82051:0]        mm_posix.c:291  UCX  ERROR shm_unlink(/ucx_shm_posix_724c391d) failed: No such file or directory
[1725067507.398528] [cluster-256-hpc-256:82051:0]        mm_posix.c:291  UCX  ERROR shm_unlink(/ucx_shm_posix_7e2b0a60) failed: No such file or directory
[1725067507.398417] [cluster-256-hpc-256:82042:0]        mm_posix.c:291  UCX  ERROR shm_unlink(/ucx_shm_posix_4c20ee2e) failed: No such file or directory
[1725067507.398497] [cluster-256-hpc-256:82042:0]        mm_posix.c:291  UCX  ERROR shm_unlink(/ucx_shm_posix_4729b24e) failed: No such file or directory
[1725067507.398395] [cluster-256-hpc-256:82075:0]        mm_posix.c:291  UCX  ERROR shm_unlink(/ucx_shm_posix_3db9ac0f) failed: No such file or directory
[1725067507.398479] [cluster-256-hpc-256:82075:0]        mm_posix.c:291  UCX  ERROR shm_unlink(/ucx_shm_posix_8fe7a6b) failed: No such file or directory
[1725067507.398503] [cluster-256-hpc-256:82074:0]        mm_posix.c:291  UCX  ERROR shm_unlink(/ucx_shm_posix_47d450c4) failed: No such file or directory
[1725067507.398604] [cluster-256-hpc-256:82074:0]        mm_posix.c:291  UCX  ERROR shm_unlink(/ucx_shm_posix_34a3c713) failed: No such file or directory
[1725067507.398455] [cluster-256-hpc-256:82278:0]        mm_posix.c:291  UCX  ERROR shm_unlink(/ucx_shm_posix_29f451b2) failed: No such file or directory
[1725067507.398543] [cluster-256-hpc-256:82278:0]        mm_posix.c:291  UCX  ERROR shm_unlink(/ucx_shm_posix_7d2cbe1e) failed: No such file or directory
[1725067507.398553] [cluster-256-hpc-256:82400:0]        mm_posix.c:291  UCX  ERROR shm_unlink(/ucx_shm_posix_e802229) failed: No such file or directory
[1725067507.398623] [cluster-256-hpc-256:82400:0]        mm_posix.c:291  UCX  ERROR shm_unlink(/ucx_shm_posix_22790749) failed: No such file or directory
[1725067507.398477] [cluster-256-hpc-256:82761:0]        mm_posix.c:291  UCX  ERROR shm_unlink(/ucx_shm_posix_476ab68) failed: No such file or directory
[1725067507.398561] [cluster-256-hpc-256:82761:0]        mm_posix.c:291  UCX  ERROR shm_unlink(/ucx_shm_posix_3bb432f5) failed: No such file or directory
[1725067507.398522] [cluster-256-hpc-256:82865:0]        mm_posix.c:291  UCX  ERROR shm_unlink(/ucx_shm_posix_1f7b0d8e) failed: No such file or directory
[1725067507.398604] [cluster-256-hpc-256:82865:0]        mm_posix.c:291  UCX  ERROR shm_unlink(/ucx_shm_posix_2062e47) failed: No such file or directory
[1725067507.398564] [cluster-256-hpc-256:82521:0]        mm_posix.c:291  UCX  ERROR shm_unlink(/ucx_shm_posix_36b88dfa) failed: No such file or directory
[1725067507.398773] [cluster-256-hpc-256:84429:0]        mm_posix.c:291  UCX  ERROR shm_unlink(/ucx_shm_posix_4d608f68) failed: No such file or directory
[1725067507.398591] [cluster-256-hpc-256:82322:0]        mm_posix.c:291  UCX  ERROR shm_unlink(/ucx_shm_posix_4cf94499) failed: No such file or directory
[1725067507.398668] [cluster-256-hpc-256:82322:0]        mm_posix.c:291  UCX  ERROR shm_unlink(/ucx_shm_posix_25f5f079) failed: No such file or directory
[1725067507.398735] [cluster-256-hpc-256:82321:0]        mm_posix.c:291  UCX  ERROR shm_unlink(/ucx_shm_posix_686164d3) failed: No such file or directory
[1725067507.398813] [cluster-256-hpc-256:82321:0]        mm_posix.c:291  UCX  ERROR shm_unlink(/ucx_shm_posix_731d4566) failed: No such file or directory
[1725067507.398610] [cluster-256-hpc-256:82436:0]        mm_posix.c:291  UCX  ERROR shm_unlink(/ucx_shm_posix_37dc0609) failed: No such file or directory
[1725067507.398706] [cluster-256-hpc-256:82436:0]        mm_posix.c:291  UCX  ERROR shm_unlink(/ucx_shm_posix_70dd551f) failed: No such file or directory
[1725067507.398630] [cluster-256-hpc-256:82494:0]        mm_posix.c:291  UCX  ERROR shm_unlink(/ucx_shm_posix_2d857c60) failed: No such file or directory
[1725067507.398712] [cluster-256-hpc-256:82494:0]        mm_posix.c:291  UCX  ERROR shm_unlink(/ucx_shm_posix_4e45dca) failed: No such file or directory
[1725067507.398673] [cluster-256-hpc-256:82552:0]        mm_posix.c:291  UCX  ERROR shm_unlink(/ucx_shm_posix_b80dab8) failed: No such file or directory
[1725067507.398748] [cluster-256-hpc-256:82552:0]        mm_posix.c:291  UCX  ERROR shm_unlink(/ucx_shm_posix_33632ef) failed: No such file or directory
[1725067507.398654] [cluster-256-hpc-256:82981:0]        mm_posix.c:291  UCX  ERROR shm_unlink(/ucx_shm_posix_2afc005c) failed: No such file or directory
[1725067507.398737] [cluster-256-hpc-256:82981:0]        mm_posix.c:291  UCX  ERROR shm_unlink(/ucx_shm_posix_79028e05) failed: No such file or directory
[1725067507.398755] [cluster-256-hpc-256:83201:0]        mm_posix.c:291  UCX  ERROR shm_unlink(/ucx_shm_posix_20aa639e) failed: No such file or directory
[1725067507.398847] [cluster-256-hpc-256:83201:0]        mm_posix.c:291  UCX  ERROR shm_unlink(/ucx_shm_posix_1fa85c47) failed: No such file or directory
[1725067507.398692] [cluster-256-hpc-256:83332:0]        mm_posix.c:291  UCX  ERROR shm_unlink(/ucx_shm_posix_27a37e77) failed: No such file or directory
[1725067507.398785] [cluster-256-hpc-256:83332:0]        mm_posix.c:291  UCX  ERROR shm_unlink(/ucx_shm_posix_171f77ca) failed: No such file or directory
[1725067507.398713] [cluster-256-hpc-256:83518:0]        mm_posix.c:291  UCX  ERROR shm_unlink(/ucx_shm_posix_48e7d2c6) failed: No such file or directory
[1725067507.398798] [cluster-256-hpc-256:83518:0]        mm_posix.c:291  UCX  ERROR shm_unlink(/ucx_shm_posix_4d4f311d) failed: No such file or directory
[1725067507.398793] [cluster-256-hpc-256:83913:0]        mm_posix.c:291  UCX  ERROR shm_unlink(/ucx_shm_posix_43c2ea6f) failed: No such file or directory
[1725067507.398859] [cluster-256-hpc-256:83913:0]        mm_posix.c:291  UCX  ERROR shm_unlink(/ucx_shm_posix_7d6fb7b0) failed: No such file or directory
[1725067507.398861] [cluster-256-hpc-256:84429:0]        mm_posix.c:291  UCX  ERROR shm_unlink(/ucx_shm_posix_544397f4) failed: No such file or directory
[1725067507.398821] [cluster-256-hpc-256:82524:0]        mm_posix.c:291  UCX  ERROR shm_unlink(/ucx_shm_posix_28c3c3cf) failed: No such file or directory
[1725067507.398902] [cluster-256-hpc-256:82524:0]        mm_posix.c:291  UCX  ERROR shm_unlink(/ucx_shm_posix_7391b037) failed: No such file or directory
[1725067507.398904] [cluster-256-hpc-256:82940:0]        mm_posix.c:291  UCX  ERROR shm_unlink(/ucx_shm_posix_57998573) failed: No such file or directory
[1725067507.398980] [cluster-256-hpc-256:82940:0]        mm_posix.c:291  UCX  ERROR shm_unlink(/ucx_shm_posix_28799a85) failed: No such file or directory
[1725067507.398946] [cluster-256-hpc-256:82836:0]        mm_posix.c:291  UCX  ERROR shm_unlink(/ucx_shm_posix_36ec7e91) failed: No such file or directory
[1725067507.399026] [cluster-256-hpc-256:82836:0]        mm_posix.c:291  UCX  ERROR shm_unlink(/ucx_shm_posix_3087d48f) failed: No such file or directory
[1725067507.398844] [cluster-256-hpc-256:83134:0]        mm_posix.c:291  UCX  ERROR shm_unlink(/ucx_shm_posix_3522b196) failed: No such file or directory
[1725067507.398917] [cluster-256-hpc-256:83134:0]        mm_posix.c:291  UCX  ERROR shm_unlink(/ucx_shm_posix_599234cd) failed: No such file or directory
[1725067507.398884] [cluster-256-hpc-256:83463:0]        mm_posix.c:291  UCX  ERROR shm_unlink(/ucx_shm_posix_4fb293e2) failed: No such file or directory
[1725067507.398959] [cluster-256-hpc-256:83463:0]        mm_posix.c:291  UCX  ERROR shm_unlink(/ucx_shm_posix_3854ca30) failed: No such file or directory
[1725067507.398864] [cluster-256-hpc-256:84007:0]        mm_posix.c:291  UCX  ERROR shm_unlink(/ucx_shm_posix_254b7eb4) failed: No such file or directory
[1725067507.398939] [cluster-256-hpc-256:84007:0]        mm_posix.c:291  UCX  ERROR shm_unlink(/ucx_shm_posix_10173de1) failed: No such file or directory
[1725067507.398921] [cluster-256-hpc-256:84503:0]        mm_posix.c:291  UCX  ERROR shm_unlink(/ucx_shm_posix_50caddc2) failed: No such file or directory
[1725067507.399004] [cluster-256-hpc-256:84503:0]        mm_posix.c:291  UCX  ERROR shm_unlink(/ucx_shm_posix_30cb85dd) failed: No such file or directory
[1725067507.398968] [cluster-256-hpc-256:84543:0]        mm_posix.c:291  UCX  ERROR shm_unlink(/ucx_shm_posix_682ad716) failed: No such file or directory
[1725067507.399046] [cluster-256-hpc-256:84543:0]        mm_posix.c:291  UCX  ERROR shm_unlink(/ucx_shm_posix_39cee285) failed: No such file or directory
[1725067507.399071] [cluster-256-hpc-256:84386:0]        mm_posix.c:291  UCX  ERROR shm_unlink(/ucx_shm_posix_35531227) failed: No such file or directory
[1725067507.399148] [cluster-256-hpc-256:84386:0]        mm_posix.c:291  UCX  ERROR shm_unlink(/ucx_shm_posix_2db860e9) failed: No such file or directory
[1725067507.398988] [cluster-256-hpc-256:82382:0]        mm_posix.c:291  UCX  ERROR shm_unlink(/ucx_shm_posix_72aaa53f) failed: No such file or directory
[1725067507.399088] [cluster-256-hpc-256:82382:0]        mm_posix.c:291  UCX  ERROR shm_unlink(/ucx_shm_posix_7e8236f3) failed: No such file or directory
[1725067507.399095] [cluster-256-hpc-256:82443:0]        mm_posix.c:291  UCX  ERROR shm_unlink(/ucx_shm_posix_38a70ad7) failed: No such file or directory
[1725067507.399013] [cluster-256-hpc-256:83010:0]        mm_posix.c:291  UCX  ERROR shm_unlink(/ucx_shm_posix_6308fe77) failed: No such file or directory
[1725067507.399088] [cluster-256-hpc-256:83010:0]        mm_posix.c:291  UCX  ERROR shm_unlink(/ucx_shm_posix_301e2d1b) failed: No such file or directory
[1725067507.399032] [cluster-256-hpc-256:83272:0]        mm_posix.c:291  UCX  ERROR shm_unlink(/ucx_shm_posix_69fb4435) failed: No such file or directory
[1725067507.399097] [cluster-256-hpc-256:83272:0]        mm_posix.c:291  UCX  ERROR shm_unlink(/ucx_shm_posix_a6be158) failed: No such file or directory
[1725067507.399055] [cluster-256-hpc-256:83670:0]        mm_posix.c:291  UCX  ERROR shm_unlink(/ucx_shm_posix_3e722979) failed: No such file or directory
[1725067507.399131] [cluster-256-hpc-256:83670:0]        mm_posix.c:291  UCX  ERROR shm_unlink(/ucx_shm_posix_20590f97) failed: No such file or directory
[1725067507.399192] [cluster-256-hpc-256:82443:0]        mm_posix.c:291  UCX  ERROR shm_unlink(/ucx_shm_posix_2f203562) failed: No such file or directory
[1725067507.399184] [cluster-256-hpc-256:83509:0]        mm_posix.c:291  UCX  ERROR shm_unlink(/ucx_shm_posix_76dbcdde) failed: No such file or directory
[1725067507.399286] [cluster-256-hpc-256:83509:0]        mm_posix.c:291  UCX  ERROR shm_unlink(/ucx_shm_posix_34019c85) failed: No such file or directory
[1725067507.399236] [cluster-256-hpc-256:83612:0]        mm_posix.c:291  UCX  ERROR shm_unlink(/ucx_shm_posix_2d687545) failed: No such file or directory
[1725067507.399156] [cluster-256-hpc-256:84229:0]        mm_posix.c:291  UCX  ERROR shm_unlink(/ucx_shm_posix_56696ce1) failed: No such file or directory
[1725067507.399251] [cluster-256-hpc-256:84229:0]        mm_posix.c:291  UCX  ERROR shm_unlink(/ucx_shm_posix_1c44cd8f) failed: No such file or directory
[1725067507.399217] [cluster-256-hpc-256:84595:0]        mm_posix.c:291  UCX  ERROR shm_unlink(/ucx_shm_posix_68ea8e3) failed: No such file or directory
[1725067507.399288] [cluster-256-hpc-256:84595:0]        mm_posix.c:291  UCX  ERROR shm_unlink(/ucx_shm_posix_75310e6c) failed: No such file or directory
[1725067507.399119] [cluster-256-hpc-256:82272:0]        mm_posix.c:291  UCX  ERROR shm_unlink(/ucx_shm_posix_7414be01) failed: No such file or directory
[1725067507.399212] [cluster-256-hpc-256:82272:0]        mm_posix.c:291  UCX  ERROR shm_unlink(/ucx_shm_posix_31eec743) failed: No such file or directory
[1725067507.399312] [cluster-256-hpc-256:83612:0]        mm_posix.c:291  UCX  ERROR shm_unlink(/ucx_shm_posix_3e7f9718) failed: No such file or directory
[1725067507.399311] [cluster-256-hpc-256:84094:0]        mm_posix.c:291  UCX  ERROR shm_unlink(/ucx_shm_posix_211c6a5d) failed: No such file or directory
[1725067507.399365] [cluster-256-hpc-256:84190:0]        mm_posix.c:291  UCX  ERROR shm_unlink(/ucx_shm_posix_1eb1f05d) failed: No such file or directory
[1725067507.399349] [cluster-256-hpc-256:82492:0]        mm_posix.c:291  UCX  ERROR shm_unlink(/ucx_shm_posix_50fd6d66) failed: No such file or directory
[1725067507.399440] [cluster-256-hpc-256:82492:0]        mm_posix.c:291  UCX  ERROR shm_unlink(/ucx_shm_posix_44872348) failed: No such file or directory
[1725067507.399258] [cluster-256-hpc-256:82543:0]        mm_posix.c:291  UCX  ERROR shm_unlink(/ucx_shm_posix_13b85ebe) failed: No such file or directory
[1725067507.399337] [cluster-256-hpc-256:82543:0]        mm_posix.c:291  UCX  ERROR shm_unlink(/ucx_shm_posix_29a0f72e) failed: No such file or directory
[1725067507.399278] [cluster-256-hpc-256:83099:0]        mm_posix.c:291  UCX  ERROR shm_unlink(/ucx_shm_posix_6b2c8bb4) failed: No such file or directory
[1725067507.399344] [cluster-256-hpc-256:83099:0]        mm_posix.c:291  UCX  ERROR shm_unlink(/ucx_shm_posix_1f7f72ba) failed: No such file or directory
[1725067507.399328] [cluster-256-hpc-256:83279:0]        mm_posix.c:291  UCX  ERROR shm_unlink(/ucx_shm_posix_73c7e4f8) failed: No such file or directory
[1725067507.399415] [cluster-256-hpc-256:83279:0]        mm_posix.c:291  UCX  ERROR shm_unlink(/ucx_shm_posix_7620108c) failed: No such file or directory
[1725067507.399410] [cluster-256-hpc-256:84094:0]        mm_posix.c:291  UCX  ERROR shm_unlink(/ucx_shm_posix_675c3305) failed: No such file or directory
[1725067507.399408] [cluster-256-hpc-256:82247:0]        mm_posix.c:291  UCX  ERROR shm_unlink(/ucx_shm_posix_cab4695) failed: No such file or directory
[1725067507.399492] [cluster-256-hpc-256:82247:0]        mm_posix.c:291  UCX  ERROR shm_unlink(/ucx_shm_posix_5bd5457a) failed: No such file or directory
[1725067507.399389] [cluster-256-hpc-256:83039:0]        mm_posix.c:291  UCX  ERROR shm_unlink(/ucx_shm_posix_5a8d490f) failed: No such file or directory
[1725067507.399492] [cluster-256-hpc-256:83039:0]        mm_posix.c:291  UCX  ERROR shm_unlink(/ucx_shm_posix_32fe020a) failed: No such file or directory
[1725067507.399574] [cluster-256-hpc-256:84277:0]        mm_posix.c:291  UCX  ERROR shm_unlink(/ucx_shm_posix_3697241f) failed: No such file or directory
[1725067507.399534] [cluster-256-hpc-256:84528:0]        mm_posix.c:291  UCX  ERROR shm_unlink(/ucx_shm_posix_5557398d) failed: No such file or directory
[1725067507.399614] [cluster-256-hpc-256:84528:0]        mm_posix.c:291  UCX  ERROR shm_unlink(/ucx_shm_posix_6323e838) failed: No such file or directory
[1725067507.399509] [cluster-256-hpc-256:84190:0]        mm_posix.c:291  UCX  ERROR shm_unlink(/ucx_shm_posix_72c1e23e) failed: No such file or directory
[1725067507.399557] [cluster-256-hpc-256:82941:0]        mm_posix.c:291  UCX  ERROR shm_unlink(/ucx_shm_posix_590cd5eb) failed: No such file or directory
[1725067507.399597] [cluster-256-hpc-256:83338:0]        mm_posix.c:291  UCX  ERROR shm_unlink(/ucx_shm_posix_61b78bec) failed: No such file or directory
[1725067507.399704] [cluster-256-hpc-256:83338:0]        mm_posix.c:291  UCX  ERROR shm_unlink(/ucx_shm_posix_210f9fe2) failed: No such file or directory
[1725067507.399626] [cluster-256-hpc-256:83370:0]        mm_posix.c:291  UCX  ERROR shm_unlink(/ucx_shm_posix_2dd1aaf1) failed: No such file or directory
[1725067507.399719] [cluster-256-hpc-256:83370:0]        mm_posix.c:291  UCX  ERROR shm_unlink(/ucx_shm_posix_2aa61abb) failed: No such file or directory
[1725067507.399643] [cluster-256-hpc-256:83696:0]        mm_posix.c:291  UCX  ERROR shm_unlink(/ucx_shm_posix_4c10b7b2) failed: No such file or directory
[1725067507.399741] [cluster-256-hpc-256:83696:0]        mm_posix.c:291  UCX  ERROR shm_unlink(/ucx_shm_posix_484c6c82) failed: No such file or directory
[1725067507.399684] [cluster-256-hpc-256:84102:0]        mm_posix.c:291  UCX  ERROR shm_unlink(/ucx_shm_posix_98bb0e4) failed: No such file or directory
[1725067507.399700] [cluster-256-hpc-256:84132:0]        mm_posix.c:291  UCX  ERROR shm_unlink(/ucx_shm_posix_20bad5a0) failed: No such file or directory
[1725067507.399665] [cluster-256-hpc-256:83954:0]        mm_posix.c:291  UCX  ERROR shm_unlink(/ucx_shm_posix_2b85d5e7) failed: No such file or directory
[1725067507.399761] [cluster-256-hpc-256:83954:0]        mm_posix.c:291  UCX  ERROR shm_unlink(/ucx_shm_posix_7941c618) failed: No such file or directory
[1725067507.399687] [cluster-256-hpc-256:84277:0]        mm_posix.c:291  UCX  ERROR shm_unlink(/ucx_shm_posix_1a67e7d1) failed: No such file or directory
[1725067507.399647] [cluster-256-hpc-256:82941:0]        mm_posix.c:291  UCX  ERROR shm_unlink(/ucx_shm_posix_3f73519e) failed: No such file or directory
[1725067507.399776] [cluster-256-hpc-256:84338:0]        mm_posix.c:291  UCX  ERROR shm_unlink(/ucx_shm_posix_12574904) failed: No such file or directory
[1725067507.399876] [cluster-256-hpc-256:84338:0]        mm_posix.c:291  UCX  ERROR shm_unlink(/ucx_shm_posix_6cd6fc85) failed: No such file or directory
[1725067507.399736] [cluster-256-hpc-256:82814:0]        mm_posix.c:291  UCX  ERROR shm_unlink(/ucx_shm_posix_11bdd388) failed: No such file or directory
[1725067507.399876] [cluster-256-hpc-256:82814:0]        mm_posix.c:291  UCX  ERROR shm_unlink(/ucx_shm_posix_3df6a6b2) failed: No such file or directory
[1725067507.399822] [cluster-256-hpc-256:83275:0]        mm_posix.c:291  UCX  ERROR shm_unlink(/ucx_shm_posix_2603c7e1) failed: No such file or directory
[1725067507.399901] [cluster-256-hpc-256:83275:0]        mm_posix.c:291  UCX  ERROR shm_unlink(/ucx_shm_posix_38eb4dfc) failed: No such file or directory
[1725067507.399839] [cluster-256-hpc-256:83477:0]        mm_posix.c:291  UCX  ERROR shm_unlink(/ucx_shm_posix_6320be3) failed: No such file or directory
[1725067507.399914] [cluster-256-hpc-256:83477:0]        mm_posix.c:291  UCX  ERROR shm_unlink(/ucx_shm_posix_498d09bf) failed: No such file or directory
[1725067507.399804] [cluster-256-hpc-256:83872:0]        mm_posix.c:291  UCX  ERROR shm_unlink(/ucx_shm_posix_4995e41) failed: No such file or directory
[1725067507.399878] [cluster-256-hpc-256:83872:0]        mm_posix.c:291  UCX  ERROR shm_unlink(/ucx_shm_posix_2a84a188) failed: No such file or directory
[1725067507.399748] [cluster-256-hpc-256:83883:0]        mm_posix.c:291  UCX  ERROR shm_unlink(/ucx_shm_posix_339b31ed) failed: No such file or directory
[1725067507.399835] [cluster-256-hpc-256:83883:0]        mm_posix.c:291  UCX  ERROR shm_unlink(/ucx_shm_posix_668a605a) failed: No such file or directory
[1725067507.399761] [cluster-256-hpc-256:84102:0]        mm_posix.c:291  UCX  ERROR shm_unlink(/ucx_shm_posix_7ba01082) failed: No such file or directory
[1725067507.399780] [cluster-256-hpc-256:84132:0]        mm_posix.c:291  UCX  ERROR shm_unlink(/ucx_shm_posix_42be7664) failed: No such file or directory
[1725067507.399792] [cluster-256-hpc-256:84270:0]        mm_posix.c:291  UCX  ERROR shm_unlink(/ucx_shm_posix_8c3432b) failed: No such file or directory
[1725067507.399884] [cluster-256-hpc-256:84270:0]        mm_posix.c:291  UCX  ERROR shm_unlink(/ucx_shm_posix_532dbce1) failed: No such file or directory
[1725067507.399858] [cluster-256-hpc-256:83591:0]        mm_posix.c:291  UCX  ERROR shm_unlink(/ucx_shm_posix_15be900c) failed: No such file or directory
[1725067507.399934] [cluster-256-hpc-256:83591:0]        mm_posix.c:291  UCX  ERROR shm_unlink(/ucx_shm_posix_151f9752) failed: No such file or directory
[1725067507.399924] [cluster-256-hpc-256:83748:0]        mm_posix.c:291  UCX  ERROR shm_unlink(/ucx_shm_posix_ebb048f) failed: No such file or directory
[1725067507.400004] [cluster-256-hpc-256:83748:0]        mm_posix.c:291  UCX  ERROR shm_unlink(/ucx_shm_posix_10682e85) failed: No such file or directory
[1725067507.399991] [cluster-256-hpc-256:84004:0]        mm_posix.c:291  UCX  ERROR shm_unlink(/ucx_shm_posix_4525c1b7) failed: No such file or directory
[1725067507.399957] [cluster-256-hpc-256:84580:0]        mm_posix.c:291  UCX  ERROR shm_unlink(/ucx_shm_posix_5073e6a8) failed: No such file or directory
[1725067507.400030] [cluster-256-hpc-256:84580:0]        mm_posix.c:291  UCX  ERROR shm_unlink(/ucx_shm_posix_77b52d2b) failed: No such file or directory
[1725067507.399976] [cluster-256-hpc-256:84607:0]        mm_posix.c:291  UCX  ERROR shm_unlink(/ucx_shm_posix_5c4e1201) failed: No such file or directory
[1725067507.400054] [cluster-256-hpc-256:84607:0]        mm_posix.c:291  UCX  ERROR shm_unlink(/ucx_shm_posix_64a4dc0) failed: No such file or directory
[1725067507.399883] [cluster-256-hpc-256:84525:0]        mm_posix.c:291  UCX  ERROR shm_unlink(/ucx_shm_posix_593c6e27) failed: No such file or directory
[1725067507.399984] [cluster-256-hpc-256:84525:0]        mm_posix.c:291  UCX  ERROR shm_unlink(/ucx_shm_posix_2c728ff0) failed: No such file or directory
[1725067507.399901] [cluster-256-hpc-256:82769:0]        mm_posix.c:291  UCX  ERROR shm_unlink(/ucx_shm_posix_427adc55) failed: No such file or directory
[1725067507.399983] [cluster-256-hpc-256:82769:0]        mm_posix.c:291  UCX  ERROR shm_unlink(/ucx_shm_posix_2d3d6685) failed: No such file or directory
[1725067507.399942] [cluster-256-hpc-256:83130:0]        mm_posix.c:291  UCX  ERROR shm_unlink(/ucx_shm_posix_346cd932) failed: No such file or directory
[1725067507.400026] [cluster-256-hpc-256:83130:0]        mm_posix.c:291  UCX  ERROR shm_unlink(/ucx_shm_posix_2a3d4cc2) failed: No such file or directory
[1725067507.400156] [cluster-256-hpc-256:84063:0]        mm_posix.c:291  UCX  ERROR shm_unlink(/ucx_shm_posix_251dc339) failed: No such file or directory
[1725067507.400230] [cluster-256-hpc-256:84063:0]        mm_posix.c:291  UCX  ERROR shm_unlink(/ucx_shm_posix_301b7cd4) failed: No such file or directory
[1725067507.400179] [cluster-256-hpc-256:84319:0]        mm_posix.c:291  UCX  ERROR shm_unlink(/ucx_shm_posix_74211827) failed: No such file or directory
[1725067507.400253] [cluster-256-hpc-256:84319:0]        mm_posix.c:291  UCX  ERROR shm_unlink(/ucx_shm_posix_668677a) failed: No such file or directory
[1725067507.400053] [cluster-256-hpc-256:84149:0]        mm_posix.c:291  UCX  ERROR shm_unlink(/ucx_shm_posix_335bd28a) failed: No such file or directory
[1725067507.400170] [cluster-256-hpc-256:84149:0]        mm_posix.c:291  UCX  ERROR shm_unlink(/ucx_shm_posix_4ae14428) failed: No such file or directory
[1725067507.400036] [cluster-256-hpc-256:84427:0]        mm_posix.c:291  UCX  ERROR shm_unlink(/ucx_shm_posix_4601c83) failed: No such file or directory
[1725067507.400134] [cluster-256-hpc-256:84427:0]        mm_posix.c:291  UCX  ERROR shm_unlink(/ucx_shm_posix_188c4c7d) failed: No such file or directory
[1725067507.400201] [cluster-256-hpc-256:84395:0]        mm_posix.c:291  UCX  ERROR shm_unlink(/ucx_shm_posix_6d8b4f9) failed: No such file or directory
[1725067507.400069] [cluster-256-hpc-256:84004:0]        mm_posix.c:291  UCX  ERROR shm_unlink(/ucx_shm_posix_537db23d) failed: No such file or directory
[1725067507.400076] [cluster-256-hpc-256:84433:0]        mm_posix.c:291  UCX  ERROR shm_unlink(/ucx_shm_posix_ce7d87e) failed: No such file or directory
[1725067507.400154] [cluster-256-hpc-256:84433:0]        mm_posix.c:291  UCX  ERROR shm_unlink(/ucx_shm_posix_49d88661) failed: No such file or directory
[1725067507.400114] [cluster-256-hpc-256:82873:0]        mm_posix.c:291  UCX  ERROR shm_unlink(/ucx_shm_posix_56a59874) failed: No such file or directory
[1725067507.400191] [cluster-256-hpc-256:82873:0]        mm_posix.c:291  UCX  ERROR shm_unlink(/ucx_shm_posix_587c9bf9) failed: No such file or directory
[1725067507.400091] [cluster-256-hpc-256:83379:0]        mm_posix.c:291  UCX  ERROR shm_unlink(/ucx_shm_posix_6d8105b8) failed: No such file or directory
[1725067507.400170] [cluster-256-hpc-256:83379:0]        mm_posix.c:291  UCX  ERROR shm_unlink(/ucx_shm_posix_5c8a04e5) failed: No such file or directory
[1725067507.400011] [cluster-256-hpc-256:83530:0]        mm_posix.c:291  UCX  ERROR shm_unlink(/ucx_shm_posix_755770cb) failed: No such file or directory
[1725067507.400112] [cluster-256-hpc-256:83530:0]        mm_posix.c:291  UCX  ERROR shm_unlink(/ucx_shm_posix_320c1763) failed: No such file or directory
[1725067507.400131] [cluster-256-hpc-256:83726:0]        mm_posix.c:291  UCX  ERROR shm_unlink(/ucx_shm_posix_2a9d9544) failed: No such file or directory
[1725067507.400211] [cluster-256-hpc-256:83726:0]        mm_posix.c:291  UCX  ERROR shm_unlink(/ucx_shm_posix_583a9d93) failed: No such file or directory
[1725067507.400274] [cluster-256-hpc-256:84395:0]        mm_posix.c:291  UCX  ERROR shm_unlink(/ucx_shm_posix_5d59faf4) failed: No such file or directory
[1725067507.400278] [cluster-256-hpc-256:82327:0]        mm_posix.c:291  UCX  ERROR shm_unlink(/ucx_shm_posix_41280608) failed: No such file or directory
[1725067507.400354] [cluster-256-hpc-256:82327:0]        mm_posix.c:291  UCX  ERROR shm_unlink(/ucx_shm_posix_7a8bb2b2) failed: No such file or directory
[1725067507.400338] [cluster-256-hpc-256:82392:0]        mm_posix.c:291  UCX  ERROR shm_unlink(/ucx_shm_posix_44ad8b32) failed: No such file or directory
[1725067507.400415] [cluster-256-hpc-256:82392:0]        mm_posix.c:291  UCX  ERROR shm_unlink(/ucx_shm_posix_4c3e0356) failed: No such file or directory
[1725067507.400257] [cluster-256-hpc-256:83132:0]        mm_posix.c:291  UCX  ERROR shm_unlink(/ucx_shm_posix_4686e62a) failed: No such file or directory
[1725067507.400339] [cluster-256-hpc-256:83132:0]        mm_posix.c:291  UCX  ERROR shm_unlink(/ucx_shm_posix_2d14ecc9) failed: No such file or directory
[1725067507.400357] [cluster-256-hpc-256:83200:0]        mm_posix.c:291  UCX  ERROR shm_unlink(/ucx_shm_posix_38f7379e) failed: No such file or directory
[1725067507.400436] [cluster-256-hpc-256:83200:0]        mm_posix.c:291  UCX  ERROR shm_unlink(/ucx_shm_posix_73769168) failed: No such file or directory
[1725067507.400392] [cluster-256-hpc-256:83769:0]        mm_posix.c:291  UCX  ERROR shm_unlink(/ucx_shm_posix_4d6cec10) failed: No such file or directory
[1725067507.400470] [cluster-256-hpc-256:83769:0]        mm_posix.c:291  UCX  ERROR shm_unlink(/ucx_shm_posix_be8c1f3) failed: No such file or directory
[1725067507.400319] [cluster-256-hpc-256:83611:0]        mm_posix.c:291  UCX  ERROR shm_unlink(/ucx_shm_posix_38011519) failed: No such file or directory
[1725067507.400392] [cluster-256-hpc-256:83611:0]        mm_posix.c:291  UCX  ERROR shm_unlink(/ucx_shm_posix_11e6a7cb) failed: No such file or directory
[1725067507.400238] [cluster-256-hpc-256:83738:0]        mm_posix.c:291  UCX  ERROR shm_unlink(/ucx_shm_posix_14298e02) failed: No such file or directory
[1725067507.400316] [cluster-256-hpc-256:83738:0]        mm_posix.c:291  UCX  ERROR shm_unlink(/ucx_shm_posix_5c5d4a0a) failed: No such file or directory
[1725067507.400381] [cluster-256-hpc-256:83952:0]        mm_posix.c:291  UCX  ERROR shm_unlink(/ucx_shm_posix_ec54c0a) failed: No such file or directory
[1725067507.400457] [cluster-256-hpc-256:83952:0]        mm_posix.c:291  UCX  ERROR shm_unlink(/ucx_shm_posix_37ebf7c1) failed: No such file or directory
[1725067507.400301] [cluster-256-hpc-256:84258:0]        mm_posix.c:291  UCX  ERROR shm_unlink(/ucx_shm_posix_44a57677) failed: No such file or directory
[1725067507.400379] [cluster-256-hpc-256:84258:0]        mm_posix.c:291  UCX  ERROR shm_unlink(/ucx_shm_posix_5fd77495) failed: No such file or directory
[1725067507.400218] [cluster-256-hpc-256:84526:0]        mm_posix.c:291  UCX  ERROR shm_unlink(/ucx_shm_posix_4c27fd51) failed: No such file or directory
[1725067507.400291] [cluster-256-hpc-256:84526:0]        mm_posix.c:291  UCX  ERROR shm_unlink(/ucx_shm_posix_50fab1fb) failed: No such file or directory
[1725067507.480552] [cluster-256-hpc-256:82278:0]        mm_posix.c:291  UCX  ERROR shm_unlink(/ucx_shm_posix_5849b32f) failed: No such file or directory
[1725067507.480630] [cluster-256-hpc-256:82278:0]        mm_posix.c:291  UCX  ERROR shm_unlink(/ucx_shm_posix_7045be83) failed: No such file or directory
[1725067507.480880] [cluster-256-hpc-256:82321:0]        mm_posix.c:291  UCX  ERROR shm_unlink(/ucx_shm_posix_33d78525) failed: No such file or directory
[1725067507.480956] [cluster-256-hpc-256:82321:0]        mm_posix.c:291  UCX  ERROR shm_unlink(/ucx_shm_posix_476b3e74) failed: No such file or directory
[1725067507.480926] [cluster-256-hpc-256:82074:0]        mm_posix.c:291  UCX  ERROR shm_unlink(/ucx_shm_posix_6dc7266d) failed: No such file or directory
[1725067507.481029] [cluster-256-hpc-256:82074:0]        mm_posix.c:291  UCX  ERROR shm_unlink(/ucx_shm_posix_274f0b3a) failed: No such file or directory
[1725067507.480976] [cluster-256-hpc-256:82494:0]        mm_posix.c:291  UCX  ERROR shm_unlink(/ucx_shm_posix_2316ff4f) failed: No such file or directory
[1725067507.481040] [cluster-256-hpc-256:82494:0]        mm_posix.c:291  UCX  ERROR shm_unlink(/ucx_shm_posix_5f5ab628) failed: No such file or directory
[1725067507.481069] [cluster-256-hpc-256:82982:0]        mm_posix.c:291  UCX  ERROR shm_unlink(/ucx_shm_posix_1864005d) failed: No such file or directory
[1725067507.481074] [cluster-256-hpc-256:82075:0]        mm_posix.c:291  UCX  ERROR shm_unlink(/ucx_shm_posix_32fb5cca) failed: No such file or directory
[1725067507.481037] [cluster-256-hpc-256:84479:0]        mm_posix.c:291  UCX  ERROR shm_unlink(/ucx_shm_posix_98dc07a) failed: No such file or directory
[1725067507.481095] [cluster-256-hpc-256:84479:0]        mm_posix.c:291  UCX  ERROR shm_unlink(/ucx_shm_posix_4fa9fe09) failed: No such file or directory
[1725067507.481198] [cluster-256-hpc-256:83845:0]        mm_posix.c:291  UCX  ERROR shm_unlink(/ucx_shm_posix_40b9484b) failed: No such file or directory
[1725067507.481141] [cluster-256-hpc-256:82982:0]        mm_posix.c:291  UCX  ERROR shm_unlink(/ucx_shm_posix_344671bf) failed: No such file or directory
[1725067507.481169] [cluster-256-hpc-256:82075:0]        mm_posix.c:291  UCX  ERROR shm_unlink(/ucx_shm_posix_7c7b0241) failed: No such file or directory
[1725067507.481269] [cluster-256-hpc-256:83845:0]        mm_posix.c:291  UCX  ERROR shm_unlink(/ucx_shm_posix_4a6d3754) failed: No such file or directory
[1725067507.481600] [cluster-256-hpc-256:82524:0]        mm_posix.c:291  UCX  ERROR shm_unlink(/ucx_shm_posix_79cb2635) failed: No such file or directory
[1725067507.481732] [cluster-256-hpc-256:82524:0]        mm_posix.c:291  UCX  ERROR shm_unlink(/ucx_shm_posix_2c3f12c7) failed: No such file or directory
[1725067507.481959] [cluster-256-hpc-256:82739:0]        mm_posix.c:291  UCX  ERROR shm_unlink(/ucx_shm_posix_32fa19f4) failed: No such file or directory
[1725067507.482063] [cluster-256-hpc-256:82739:0]        mm_posix.c:291  UCX  ERROR shm_unlink(/ucx_shm_posix_16a74e8d) failed: No such file or directory
[1725067507.482084] [cluster-256-hpc-256:82436:0]        mm_posix.c:291  UCX  ERROR shm_unlink(/ucx_shm_posix_54e19a01) failed: No such file or directory
[1725067507.482176] [cluster-256-hpc-256:82436:0]        mm_posix.c:291  UCX  ERROR shm_unlink(/ucx_shm_posix_742528a8) failed: No such file or directory
[1725067507.482256] [cluster-256-hpc-256:82322:0]        mm_posix.c:291  UCX  ERROR shm_unlink(/ucx_shm_posix_8bef85e) failed: No such file or directory
[1725067507.482248] [cluster-256-hpc-256:82400:0]        mm_posix.c:291  UCX  ERROR shm_unlink(/ucx_shm_posix_2e9ed75e) failed: No such file or directory
[1725067507.482385] [cluster-256-hpc-256:82400:0]        mm_posix.c:291  UCX  ERROR shm_unlink(/ucx_shm_posix_120e2ac3) failed: No such file or directory
[1725067507.482299] [cluster-256-hpc-256:82042:0]        mm_posix.c:291  UCX  ERROR shm_unlink(/ucx_shm_posix_2c7170b7) failed: No such file or directory
[1725067507.482418] [cluster-256-hpc-256:82042:0]        mm_posix.c:291  UCX  ERROR shm_unlink(/ucx_shm_posix_59e51431) failed: No such file or directory
[1725067507.482353] [cluster-256-hpc-256:82322:0]        mm_posix.c:291  UCX  ERROR shm_unlink(/ucx_shm_posix_2d7646cf) failed: No such file or directory
[1725067507.482546] [cluster-256-hpc-256:83272:0]        mm_posix.c:291  UCX  ERROR shm_unlink(/ucx_shm_posix_2233c5f6) failed: No such file or directory
[1725067507.482624] [cluster-256-hpc-256:83272:0]        mm_posix.c:291  UCX  ERROR shm_unlink(/ucx_shm_posix_309a5920) failed: No such file or directory
[1725067507.482668] [cluster-256-hpc-256:82940:0]        mm_posix.c:291  UCX  ERROR shm_unlink(/ucx_shm_posix_3c666e98) failed: No such file or directory
[1725067507.482758] [cluster-256-hpc-256:82940:0]        mm_posix.c:291  UCX  ERROR shm_unlink(/ucx_shm_posix_49b26dc0) failed: No such file or directory
[1725067507.482736] [cluster-256-hpc-256:82769:0]        mm_posix.c:291  UCX  ERROR shm_unlink(/ucx_shm_posix_510df945) failed: No such file or directory
[1725067507.482734] [cluster-256-hpc-256:83134:0]        mm_posix.c:291  UCX  ERROR shm_unlink(/ucx_shm_posix_1b81f75f) failed: No such file or directory
[1725067507.482817] [cluster-256-hpc-256:82769:0]        mm_posix.c:291  UCX  ERROR shm_unlink(/ucx_shm_posix_31d8ee05) failed: No such file or directory
[1725067507.482772] [cluster-256-hpc-256:82521:0]        mm_posix.c:291  UCX  ERROR shm_unlink(/ucx_shm_posix_5f00c0a1) failed: No such file or directory
[1725067507.482816] [cluster-256-hpc-256:83134:0]        mm_posix.c:291  UCX  ERROR shm_unlink(/ucx_shm_posix_266acc85) failed: No such file or directory
[1725067507.482873] [cluster-256-hpc-256:82521:0]        mm_posix.c:291  UCX  ERROR shm_unlink(/ucx_shm_posix_3eb652b7) failed: No such file or directory
[1725067507.482890] [cluster-256-hpc-256:82865:0]        mm_posix.c:291  UCX  ERROR shm_unlink(/ucx_shm_posix_790b649) failed: No such file or directory
[1725067507.482994] [cluster-256-hpc-256:82459:0]        mm_posix.c:291  UCX  ERROR shm_unlink(/ucx_shm_posix_3ca7cac9) failed: No such file or directory
[1725067507.482970] [cluster-256-hpc-256:82247:0]        mm_posix.c:291  UCX  ERROR shm_unlink(/ucx_shm_posix_4eb9b1a9) failed: No such file or directory
[1725067507.483055] [cluster-256-hpc-256:82247:0]        mm_posix.c:291  UCX  ERROR shm_unlink(/ucx_shm_posix_800d28c) failed: No such file or directory
[1725067507.482986] [cluster-256-hpc-256:82552:0]        mm_posix.c:291  UCX  ERROR shm_unlink(/ucx_shm_posix_4a64d894) failed: No such file or directory
[1725067507.482953] [cluster-256-hpc-256:82865:0]        mm_posix.c:291  UCX  ERROR shm_unlink(/ucx_shm_posix_7c3ae660) failed: No such file or directory
[1725067507.482946] [cluster-256-hpc-256:82382:0]        mm_posix.c:291  UCX  ERROR shm_unlink(/ucx_shm_posix_6dbbb84e) failed: No such file or directory
[1725067507.483030] [cluster-256-hpc-256:82382:0]        mm_posix.c:291  UCX  ERROR shm_unlink(/ucx_shm_posix_69e617c2) failed: No such file or directory
[1725067507.483069] [cluster-256-hpc-256:82552:0]        mm_posix.c:291  UCX  ERROR shm_unlink(/ucx_shm_posix_19e6a2b4) failed: No such file or directory
[1725067507.483083] [cluster-256-hpc-256:82459:0]        mm_posix.c:291  UCX  ERROR shm_unlink(/ucx_shm_posix_78021c5) failed: No such file or directory
[1725067507.483113] [cluster-256-hpc-256:82836:0]        mm_posix.c:291  UCX  ERROR shm_unlink(/ucx_shm_posix_3e5ab7c7) failed: No such file or directory
[1725067507.483124] [cluster-256-hpc-256:82443:0]        mm_posix.c:291  UCX  ERROR shm_unlink(/ucx_shm_posix_3d2b0970) failed: No such file or directory
[1725067507.483223] [cluster-256-hpc-256:82443:0]        mm_posix.c:291  UCX  ERROR shm_unlink(/ucx_shm_posix_2779ca13) failed: No such file or directory
[1725067507.483249] [cluster-256-hpc-256:83201:0]        mm_posix.c:291  UCX  ERROR shm_unlink(/ucx_shm_posix_3a25217d) failed: No such file or directory
[1725067507.483239] [cluster-256-hpc-256:82873:0]        mm_posix.c:291  UCX  ERROR shm_unlink(/ucx_shm_posix_ad69230) failed: No such file or directory
[1725067507.483220] [cluster-256-hpc-256:82836:0]        mm_posix.c:291  UCX  ERROR shm_unlink(/ucx_shm_posix_6d43ad85) failed: No such file or directory
[1725067507.483157] [cluster-256-hpc-256:83518:0]        mm_posix.c:291  UCX  ERROR shm_unlink(/ucx_shm_posix_664f5b78) failed: No such file or directory
[1725067507.483245] [cluster-256-hpc-256:83518:0]        mm_posix.c:291  UCX  ERROR shm_unlink(/ucx_shm_posix_9263da1) failed: No such file or directory
[1725067507.483317] [cluster-256-hpc-256:82981:0]        mm_posix.c:291  UCX  ERROR shm_unlink(/ucx_shm_posix_7c655dbc) failed: No such file or directory
[1725067507.483390] [cluster-256-hpc-256:82981:0]        mm_posix.c:291  UCX  ERROR shm_unlink(/ucx_shm_posix_a70dee2) failed: No such file or directory
[1725067507.483332] [cluster-256-hpc-256:83201:0]        mm_posix.c:291  UCX  ERROR shm_unlink(/ucx_shm_posix_1438214e) failed: No such file or directory
[1725067507.483304] [cluster-256-hpc-256:82873:0]        mm_posix.c:291  UCX  ERROR shm_unlink(/ucx_shm_posix_311067b5) failed: No such file or directory
[1725067507.483348] [cluster-256-hpc-256:84543:0]        mm_posix.c:291  UCX  ERROR shm_unlink(/ucx_shm_posix_71172075) failed: No such file or directory
[1725067507.483343] [cluster-256-hpc-256:83279:0]        mm_posix.c:291  UCX  ERROR shm_unlink(/ucx_shm_posix_78d42475) failed: No such file or directory
[1725067507.483378] [cluster-256-hpc-256:84007:0]        mm_posix.c:291  UCX  ERROR shm_unlink(/ucx_shm_posix_35dfb4c3) failed: No such file or directory
[1725067507.483405] [cluster-256-hpc-256:84429:0]        mm_posix.c:291  UCX  ERROR shm_unlink(/ucx_shm_posix_358d2660) failed: No such file or directory
[1725067507.483472] [cluster-256-hpc-256:84429:0]        mm_posix.c:291  UCX  ERROR shm_unlink(/ucx_shm_posix_e3c7199) failed: No such file or directory
[1725067507.483375] [cluster-256-hpc-256:83010:0]        mm_posix.c:291  UCX  ERROR shm_unlink(/ucx_shm_posix_4092e13a) failed: No such file or directory
[1725067507.483451] [cluster-256-hpc-256:83010:0]        mm_posix.c:291  UCX  ERROR shm_unlink(/ucx_shm_posix_5e1b64c9) failed: No such file or directory
[1725067507.483444] [cluster-256-hpc-256:83332:0]        mm_posix.c:291  UCX  ERROR shm_unlink(/ucx_shm_posix_7b5f8758) failed: No such file or directory
[1725067507.483511] [cluster-256-hpc-256:83332:0]        mm_posix.c:291  UCX  ERROR shm_unlink(/ucx_shm_posix_36d6a2e7) failed: No such file or directory
[1725067507.483420] [cluster-256-hpc-256:84543:0]        mm_posix.c:291  UCX  ERROR shm_unlink(/ucx_shm_posix_71e2329c) failed: No such file or directory
[1725067507.483437] [cluster-256-hpc-256:83279:0]        mm_posix.c:291  UCX  ERROR shm_unlink(/ucx_shm_posix_11f61f9) failed: No such file or directory
[1725067507.483448] [cluster-256-hpc-256:84007:0]        mm_posix.c:291  UCX  ERROR shm_unlink(/ucx_shm_posix_326d8ae9) failed: No such file or directory
[1725067507.483588] [cluster-256-hpc-256:84102:0]        mm_posix.c:291  UCX  ERROR shm_unlink(/ucx_shm_posix_42e95bbf) failed: No such file or directory
[1725067507.483698] [cluster-256-hpc-256:84102:0]        mm_posix.c:291  UCX  ERROR shm_unlink(/ucx_shm_posix_426dea1e) failed: No such file or directory
[1725067507.483684] [cluster-256-hpc-256:84063:0]        mm_posix.c:291  UCX  ERROR shm_unlink(/ucx_shm_posix_70131d77) failed: No such file or directory
[1725067507.483618] [cluster-256-hpc-256:84149:0]        mm_posix.c:291  UCX  ERROR shm_unlink(/ucx_shm_posix_aafef8a) failed: No such file or directory
[1725067507.483601] [cluster-256-hpc-256:84595:0]        mm_posix.c:291  UCX  ERROR shm_unlink(/ucx_shm_posix_a333304) failed: No such file or directory
[1725067507.483709] [cluster-256-hpc-256:84595:0]        mm_posix.c:291  UCX  ERROR shm_unlink(/ucx_shm_posix_478add0) failed: No such file or directory
[1725067507.483505] [cluster-256-hpc-256:83913:0]        mm_posix.c:291  UCX  ERROR shm_unlink(/ucx_shm_posix_4974bde3) failed: No such file or directory
[1725067507.483705] [cluster-256-hpc-256:83913:0]        mm_posix.c:291  UCX  ERROR shm_unlink(/ucx_shm_posix_59ae4047) failed: No such file or directory
[1725067507.483557] [cluster-256-hpc-256:82492:0]        mm_posix.c:291  UCX  ERROR shm_unlink(/ucx_shm_posix_5b4d0b8f) failed: No such file or directory
[1725067507.483629] [cluster-256-hpc-256:82492:0]        mm_posix.c:291  UCX  ERROR shm_unlink(/ucx_shm_posix_7d8abe31) failed: No such file or directory
[1725067507.483498] [cluster-256-hpc-256:84525:0]        mm_posix.c:291  UCX  ERROR shm_unlink(/ucx_shm_posix_1068f58d) failed: No such file or directory
[1725067507.483588] [cluster-256-hpc-256:84525:0]        mm_posix.c:291  UCX  ERROR shm_unlink(/ucx_shm_posix_4b375a22) failed: No such file or directory
[1725067507.483514] [cluster-256-hpc-256:84190:0]        mm_posix.c:291  UCX  ERROR shm_unlink(/ucx_shm_posix_ad1ab8c) failed: No such file or directory
[1725067507.483614] [cluster-256-hpc-256:84190:0]        mm_posix.c:291  UCX  ERROR shm_unlink(/ucx_shm_posix_733d4435) failed: No such file or directory
[1725067507.483498] [cluster-256-hpc-256:84277:0]        mm_posix.c:291  UCX  ERROR shm_unlink(/ucx_shm_posix_3bfb0929) failed: No such file or directory
[1725067507.483566] [cluster-256-hpc-256:84277:0]        mm_posix.c:291  UCX  ERROR shm_unlink(/ucx_shm_posix_7cfcab85) failed: No such file or directory
[1725067507.483502] [cluster-256-hpc-256:83099:0]        mm_posix.c:291  UCX  ERROR shm_unlink(/ucx_shm_posix_6c11dc3c) failed: No such file or directory
[1725067507.483601] [cluster-256-hpc-256:83099:0]        mm_posix.c:291  UCX  ERROR shm_unlink(/ucx_shm_posix_2da1e378) failed: No such file or directory
[1725067507.483555] [cluster-256-hpc-256:83530:0]        mm_posix.c:291  UCX  ERROR shm_unlink(/ucx_shm_posix_3f7b553f) failed: No such file or directory
[1725067507.483662] [cluster-256-hpc-256:83530:0]        mm_posix.c:291  UCX  ERROR shm_unlink(/ucx_shm_posix_228d843a) failed: No such file or directory
[1725067507.483830] [cluster-256-hpc-256:83591:0]        mm_posix.c:291  UCX  ERROR shm_unlink(/ucx_shm_posix_154eb0c6) failed: No such file or directory
[1725067507.483910] [cluster-256-hpc-256:83591:0]        mm_posix.c:291  UCX  ERROR shm_unlink(/ucx_shm_posix_2675925c) failed: No such file or directory
[1725067507.483894] [cluster-256-hpc-256:83611:0]        mm_posix.c:291  UCX  ERROR shm_unlink(/ucx_shm_posix_18b9cdd5) failed: No such file or directory
[1725067507.483954] [cluster-256-hpc-256:83611:0]        mm_posix.c:291  UCX  ERROR shm_unlink(/ucx_shm_posix_1c75ee50) failed: No such file or directory
[1725067507.483674] [cluster-256-hpc-256:83748:0]        mm_posix.c:291  UCX  ERROR shm_unlink(/ucx_shm_posix_5ee6aa93) failed: No such file or directory
[1725067507.483731] [cluster-256-hpc-256:83748:0]        mm_posix.c:291  UCX  ERROR shm_unlink(/ucx_shm_posix_188fa87e) failed: No such file or directory
[1725067507.483709] [cluster-256-hpc-256:83696:0]        mm_posix.c:291  UCX  ERROR shm_unlink(/ucx_shm_posix_1c8ac5f5) failed: No such file or directory
[1725067507.483784] [cluster-256-hpc-256:83696:0]        mm_posix.c:291  UCX  ERROR shm_unlink(/ucx_shm_posix_246288c7) failed: No such file or directory
[1725067507.483839] [cluster-256-hpc-256:83883:0]        mm_posix.c:291  UCX  ERROR shm_unlink(/ucx_shm_posix_59d61774) failed: No such file or directory
[1725067507.483905] [cluster-256-hpc-256:83883:0]        mm_posix.c:291  UCX  ERROR shm_unlink(/ucx_shm_posix_426f253c) failed: No such file or directory
[1725067507.483761] [cluster-256-hpc-256:84132:0]        mm_posix.c:291  UCX  ERROR shm_unlink(/ucx_shm_posix_5e172316) failed: No such file or directory
[1725067507.483819] [cluster-256-hpc-256:84132:0]        mm_posix.c:291  UCX  ERROR shm_unlink(/ucx_shm_posix_1e594775) failed: No such file or directory
[1725067507.483840] [cluster-256-hpc-256:82272:0]        mm_posix.c:291  UCX  ERROR shm_unlink(/ucx_shm_posix_101bd2c7) failed: No such file or directory
[1725067507.483915] [cluster-256-hpc-256:82272:0]        mm_posix.c:291  UCX  ERROR shm_unlink(/ucx_shm_posix_59f1d5a5) failed: No such file or directory
[1725067507.483735] [cluster-256-hpc-256:83612:0]        mm_posix.c:291  UCX  ERROR shm_unlink(/ucx_shm_posix_1fa0341a) failed: No such file or directory
[1725067507.483795] [cluster-256-hpc-256:83612:0]        mm_posix.c:291  UCX  ERROR shm_unlink(/ucx_shm_posix_553c3653) failed: No such file or directory
[1725067507.483778] [cluster-256-hpc-256:83130:0]        mm_posix.c:291  UCX  ERROR shm_unlink(/ucx_shm_posix_2c449b8c) failed: No such file or directory
[1725067507.483855] [cluster-256-hpc-256:83130:0]        mm_posix.c:291  UCX  ERROR shm_unlink(/ucx_shm_posix_5a296b16) failed: No such file or directory
[1725067507.483804] [cluster-256-hpc-256:84063:0]        mm_posix.c:291  UCX  ERROR shm_unlink(/ucx_shm_posix_6c3443ee) failed: No such file or directory
[1725067507.483766] [cluster-256-hpc-256:82941:0]        mm_posix.c:291  UCX  ERROR shm_unlink(/ucx_shm_posix_4b36790c) failed: No such file or directory
[1725067507.483844] [cluster-256-hpc-256:82941:0]        mm_posix.c:291  UCX  ERROR shm_unlink(/ucx_shm_posix_58b0ce23) failed: No such file or directory
[1725067507.483914] [cluster-256-hpc-256:83726:0]        mm_posix.c:291  UCX  ERROR shm_unlink(/ucx_shm_posix_c68d759) failed: No such file or directory
[1725067507.483976] [cluster-256-hpc-256:83726:0]        mm_posix.c:291  UCX  ERROR shm_unlink(/ucx_shm_posix_69f06031) failed: No such file or directory
[1725067507.483934] [cluster-256-hpc-256:84503:0]        mm_posix.c:291  UCX  ERROR shm_unlink(/ucx_shm_posix_1eefb1bb) failed: No such file or directory
[1725067507.483756] [cluster-256-hpc-256:83954:0]        mm_posix.c:291  UCX  ERROR shm_unlink(/ucx_shm_posix_21d06e92) failed: No such file or directory
[1725067507.483841] [cluster-256-hpc-256:83954:0]        mm_posix.c:291  UCX  ERROR shm_unlink(/ucx_shm_posix_355fa781) failed: No such file or directory
[1725067507.483763] [cluster-256-hpc-256:84395:0]        mm_posix.c:291  UCX  ERROR shm_unlink(/ucx_shm_posix_3bdce5ae) failed: No such file or directory
[1725067507.483870] [cluster-256-hpc-256:84395:0]        mm_posix.c:291  UCX  ERROR shm_unlink(/ucx_shm_posix_6b6e9267) failed: No such file or directory
[1725067507.483794] [cluster-256-hpc-256:84149:0]        mm_posix.c:291  UCX  ERROR shm_unlink(/ucx_shm_posix_78e5a164) failed: No such file or directory
[1725067507.483644] [cluster-256-hpc-256:84094:0]        mm_posix.c:291  UCX  ERROR shm_unlink(/ucx_shm_posix_68349718) failed: No such file or directory
[1725067507.483756] [cluster-256-hpc-256:84094:0]        mm_posix.c:291  UCX  ERROR shm_unlink(/ucx_shm_posix_449072d0) failed: No such file or directory
[1725067507.483679] [cluster-256-hpc-256:84528:0]        mm_posix.c:291  UCX  ERROR shm_unlink(/ucx_shm_posix_360020c7) failed: No such file or directory
[1725067507.483766] [cluster-256-hpc-256:84528:0]        mm_posix.c:291  UCX  ERROR shm_unlink(/ucx_shm_posix_4d943909) failed: No such file or directory
[1725067507.483775] [cluster-256-hpc-256:84433:0]        mm_posix.c:291  UCX  ERROR shm_unlink(/ucx_shm_posix_3ad9c9c4) failed: No such file or directory
[1725067507.483857] [cluster-256-hpc-256:84433:0]        mm_posix.c:291  UCX  ERROR shm_unlink(/ucx_shm_posix_5852c5e0) failed: No such file or directory
[1725067507.483865] [cluster-256-hpc-256:82543:0]        mm_posix.c:291  UCX  ERROR shm_unlink(/ucx_shm_posix_693efcf7) failed: No such file or directory
[1725067507.483930] [cluster-256-hpc-256:82543:0]        mm_posix.c:291  UCX  ERROR shm_unlink(/ucx_shm_posix_66758a18) failed: No such file or directory
[1725067507.483791] [cluster-256-hpc-256:83670:0]        mm_posix.c:291  UCX  ERROR shm_unlink(/ucx_shm_posix_4a1feeaa) failed: No such file or directory
[1725067507.483850] [cluster-256-hpc-256:83670:0]        mm_posix.c:291  UCX  ERROR shm_unlink(/ucx_shm_posix_56f87720) failed: No such file or directory
[1725067507.483870] [cluster-256-hpc-256:83132:0]        mm_posix.c:291  UCX  ERROR shm_unlink(/ucx_shm_posix_1a26b897) failed: No such file or directory
[1725067507.483934] [cluster-256-hpc-256:83132:0]        mm_posix.c:291  UCX  ERROR shm_unlink(/ucx_shm_posix_23f4f9bc) failed: No such file or directory
[1725067507.483724] [cluster-256-hpc-256:83370:0]        mm_posix.c:291  UCX  ERROR shm_unlink(/ucx_shm_posix_72f38f8) failed: No such file or directory
[1725067507.483791] [cluster-256-hpc-256:83370:0]        mm_posix.c:291  UCX  ERROR shm_unlink(/ucx_shm_posix_37133f44) failed: No such file or directory
[1725067507.484105] [cluster-256-hpc-256:83463:0]        mm_posix.c:291  UCX  ERROR shm_unlink(/ucx_shm_posix_670df818) failed: No such file or directory
[1725067507.484159] [cluster-256-hpc-256:83463:0]        mm_posix.c:291  UCX  ERROR shm_unlink(/ucx_shm_posix_74366c27) failed: No such file or directory
[1725067507.484137] [cluster-256-hpc-256:83872:0]        mm_posix.c:291  UCX  ERROR shm_unlink(/ucx_shm_posix_2afdff85) failed: No such file or directory
[1725067507.484195] [cluster-256-hpc-256:83872:0]        mm_posix.c:291  UCX  ERROR shm_unlink(/ucx_shm_posix_49267d9e) failed: No such file or directory
[1725067507.483988] [cluster-256-hpc-256:83738:0]        mm_posix.c:291  UCX  ERROR shm_unlink(/ucx_shm_posix_5f03aeec) failed: No such file or directory
[1725067507.484069] [cluster-256-hpc-256:83738:0]        mm_posix.c:291  UCX  ERROR shm_unlink(/ucx_shm_posix_17d2d8be) failed: No such file or directory
[1725067507.483995] [cluster-256-hpc-256:83952:0]        mm_posix.c:291  UCX  ERROR shm_unlink(/ucx_shm_posix_6c0117e3) failed: No such file or directory
[1725067507.484065] [cluster-256-hpc-256:83952:0]        mm_posix.c:291  UCX  ERROR shm_unlink(/ucx_shm_posix_27a2858e) failed: No such file or directory
[1725067507.483975] [cluster-256-hpc-256:84258:0]        mm_posix.c:291  UCX  ERROR shm_unlink(/ucx_shm_posix_52db2776) failed: No such file or directory
[1725067507.484033] [cluster-256-hpc-256:84258:0]        mm_posix.c:291  UCX  ERROR shm_unlink(/ucx_shm_posix_3f1adf8a) failed: No such file or directory
[1725067507.484001] [cluster-256-hpc-256:84427:0]        mm_posix.c:291  UCX  ERROR shm_unlink(/ucx_shm_posix_4a6b9623) failed: No such file or directory
[1725067507.484083] [cluster-256-hpc-256:84427:0]        mm_posix.c:291  UCX  ERROR shm_unlink(/ucx_shm_posix_2a6c3e3e) failed: No such file or directory
[1725067507.484112] [cluster-256-hpc-256:84004:0]        mm_posix.c:291  UCX  ERROR shm_unlink(/ucx_shm_posix_7f2f0127) failed: No such file or directory
[1725067507.484170] [cluster-256-hpc-256:84004:0]        mm_posix.c:291  UCX  ERROR shm_unlink(/ucx_shm_posix_e7e36e5) failed: No such file or directory
[1725067507.484000] [cluster-256-hpc-256:84229:0]        mm_posix.c:291  UCX  ERROR shm_unlink(/ucx_shm_posix_66535b2a) failed: No such file or directory
[1725067507.484067] [cluster-256-hpc-256:84229:0]        mm_posix.c:291  UCX  ERROR shm_unlink(/ucx_shm_posix_3267dfd3) failed: No such file or directory
[1725067507.484036] [cluster-256-hpc-256:84503:0]        mm_posix.c:291  UCX  ERROR shm_unlink(/ucx_shm_posix_419e8c6c) failed: No such file or directory
[1725067507.484039] [cluster-256-hpc-256:84607:0]        mm_posix.c:291  UCX  ERROR shm_unlink(/ucx_shm_posix_716cfb06) failed: No such file or directory
[1725067507.484138] [cluster-256-hpc-256:84607:0]        mm_posix.c:291  UCX  ERROR shm_unlink(/ucx_shm_posix_4e52b73d) failed: No such file or directory
[1725067507.484030] [cluster-256-hpc-256:84386:0]        mm_posix.c:291  UCX  ERROR shm_unlink(/ucx_shm_posix_71c36) failed: No such file or directory
[1725067507.484090] [cluster-256-hpc-256:84386:0]        mm_posix.c:291  UCX  ERROR shm_unlink(/ucx_shm_posix_21fc2ecd) failed: No such file or directory
[1725067507.483928] [cluster-256-hpc-256:82327:0]        mm_posix.c:291  UCX  ERROR shm_unlink(/ucx_shm_posix_3b38952b) failed: No such file or directory
[1725067507.483988] [cluster-256-hpc-256:82327:0]        mm_posix.c:291  UCX  ERROR shm_unlink(/ucx_shm_posix_5b604a06) failed: No such file or directory
[1725067507.484059] [cluster-256-hpc-256:84338:0]        mm_posix.c:291  UCX  ERROR shm_unlink(/ucx_shm_posix_14030023) failed: No such file or directory
[1725067507.484032] [cluster-256-hpc-256:82761:0]        mm_posix.c:291  UCX  ERROR shm_unlink(/ucx_shm_posix_74b47538) failed: No such file or directory
[1725067507.484085] [cluster-256-hpc-256:82761:0]        mm_posix.c:291  UCX  ERROR shm_unlink(/ucx_shm_posix_565820f3) failed: No such file or directory
[1725067507.484203] [cluster-256-hpc-256:82814:0]        mm_posix.c:291  UCX  ERROR shm_unlink(/ucx_shm_posix_976db04) failed: No such file or directory
[1725067507.484308] [cluster-256-hpc-256:82814:0]        mm_posix.c:291  UCX  ERROR shm_unlink(/ucx_shm_posix_278086a1) failed: No such file or directory
[1725067507.483938] [cluster-256-hpc-256:82392:0]        mm_posix.c:291  UCX  ERROR shm_unlink(/ucx_shm_posix_338902be) failed: No such file or directory
[1725067507.484002] [cluster-256-hpc-256:82392:0]        mm_posix.c:291  UCX  ERROR shm_unlink(/ucx_shm_posix_59d2d443) failed: No such file or directory
[1725067507.484005] [cluster-256-hpc-256:83275:0]        mm_posix.c:291  UCX  ERROR shm_unlink(/ucx_shm_posix_4a04899e) failed: No such file or directory
[1725067507.484124] [cluster-256-hpc-256:83275:0]        mm_posix.c:291  UCX  ERROR shm_unlink(/ucx_shm_posix_3caf0665) failed: No such file or directory
[1725067507.484073] [cluster-256-hpc-256:84270:0]        mm_posix.c:291  UCX  ERROR shm_unlink(/ucx_shm_posix_5e3c3950) failed: No such file or directory
[1725067507.484150] [cluster-256-hpc-256:84270:0]        mm_posix.c:291  UCX  ERROR shm_unlink(/ucx_shm_posix_6b35dee4) failed: No such file or directory
[1725067507.484017] [cluster-256-hpc-256:83338:0]        mm_posix.c:291  UCX  ERROR shm_unlink(/ucx_shm_posix_41f8b703) failed: No such file or directory
[1725067507.484093] [cluster-256-hpc-256:83338:0]        mm_posix.c:291  UCX  ERROR shm_unlink(/ucx_shm_posix_279a9dd) failed: No such file or directory
[1725067507.484021] [cluster-256-hpc-256:83379:0]        mm_posix.c:291  UCX  ERROR shm_unlink(/ucx_shm_posix_5b38752d) failed: No such file or directory
[1725067507.484081] [cluster-256-hpc-256:83379:0]        mm_posix.c:291  UCX  ERROR shm_unlink(/ucx_shm_posix_1a2d4ec0) failed: No such file or directory
[1725067507.483959] [cluster-256-hpc-256:83200:0]        mm_posix.c:291  UCX  ERROR shm_unlink(/ucx_shm_posix_31caf01c) failed: No such file or directory
[1725067507.484013] [cluster-256-hpc-256:83200:0]        mm_posix.c:291  UCX  ERROR shm_unlink(/ucx_shm_posix_39194afb) failed: No such file or directory
[1725067507.484066] [cluster-256-hpc-256:83509:0]        mm_posix.c:291  UCX  ERROR shm_unlink(/ucx_shm_posix_1c561365) failed: No such file or directory
[1725067507.484119] [cluster-256-hpc-256:83509:0]        mm_posix.c:291  UCX  ERROR shm_unlink(/ucx_shm_posix_4f944c9d) failed: No such file or directory
[1725067507.484194] [cluster-256-hpc-256:83477:0]        mm_posix.c:291  UCX  ERROR shm_unlink(/ucx_shm_posix_cd2e1cd) failed: No such file or directory
[1725067507.484310] [cluster-256-hpc-256:83477:0]        mm_posix.c:291  UCX  ERROR shm_unlink(/ucx_shm_posix_4e11e5e) failed: No such file or directory
[1725067507.484295] [cluster-256-hpc-256:83769:0]        mm_posix.c:291  UCX  ERROR shm_unlink(/ucx_shm_posix_502a304f) failed: No such file or directory
[1725067507.484359] [cluster-256-hpc-256:83769:0]        mm_posix.c:291  UCX  ERROR shm_unlink(/ucx_shm_posix_7bafbe25) failed: No such file or directory
[1725067507.484332] [cluster-256-hpc-256:84319:0]        mm_posix.c:291  UCX  ERROR shm_unlink(/ucx_shm_posix_35b066b7) failed: No such file or directory
[1725067507.484418] [cluster-256-hpc-256:84319:0]        mm_posix.c:291  UCX  ERROR shm_unlink(/ucx_shm_posix_5265e130) failed: No such file or directory
[1725067507.484481] [cluster-256-hpc-256:83039:0]        mm_posix.c:291  UCX  ERROR shm_unlink(/ucx_shm_posix_4df54dcf) failed: No such file or directory
[1725067507.484290] [cluster-256-hpc-256:84580:0]        mm_posix.c:291  UCX  ERROR shm_unlink(/ucx_shm_posix_1fae574e) failed: No such file or directory
[1725067507.484356] [cluster-256-hpc-256:84580:0]        mm_posix.c:291  UCX  ERROR shm_unlink(/ucx_shm_posix_1b579bb) failed: No such file or directory
[1725067507.484380] [cluster-256-hpc-256:82051:0]        mm_posix.c:291  UCX  ERROR shm_unlink(/ucx_shm_posix_573d9bbd) failed: No such file or directory
[1725067507.484440] [cluster-256-hpc-256:82051:0]        mm_posix.c:291  UCX  ERROR shm_unlink(/ucx_shm_posix_6db6a371) failed: No such file or directory
[1725067507.484391] [cluster-256-hpc-256:84526:0]        mm_posix.c:291  UCX  ERROR shm_unlink(/ucx_shm_posix_1f742613) failed: No such file or directory
[1725067507.484541] [cluster-256-hpc-256:83039:0]        mm_posix.c:291  UCX  ERROR shm_unlink(/ucx_shm_posix_4c162795) failed: No such file or directory
[1725067507.485007] [cluster-256-hpc-256:84338:0]        mm_posix.c:291  UCX  ERROR shm_unlink(/ucx_shm_posix_50f218f9) failed: No such file or directory
[1725067507.485053] [cluster-256-hpc-256:84338:0]        mm_posix.c:291  UCX  ERROR shm_unlink(/ucx_shm_posix_4a6486af) failed: No such file or directory
[1725067507.485292] [cluster-256-hpc-256:84526:0]        mm_posix.c:291  UCX  ERROR shm_unlink(/ucx_shm_posix_236c08ef) failed: No such file or directory
[1725067507.485339] [cluster-256-hpc-256:84526:0]        mm_posix.c:291  UCX  ERROR shm_unlink(/ucx_shm_posix_47257fa1) failed: No such file or directory
[1725067507.528939] [cluster-256-hpc-256:82074:0]        mm_posix.c:291  UCX  ERROR shm_unlink(/ucx_shm_posix_376d9649) failed: No such file or directory
[1725067507.528997] [cluster-256-hpc-256:82074:0]        mm_posix.c:291  UCX  ERROR shm_unlink(/ucx_shm_posix_df96e9d) failed: No such file or directory
[1725067507.529765] [cluster-256-hpc-256:82278:0]        mm_posix.c:291  UCX  ERROR shm_unlink(/ucx_shm_posix_59f6e5e6) failed: No such file or directory
[1725067507.529813] [cluster-256-hpc-256:82278:0]        mm_posix.c:291  UCX  ERROR shm_unlink(/ucx_shm_posix_73b395c0) failed: No such file or directory
[1725067507.531592] [cluster-256-hpc-256:82494:0]        mm_posix.c:291  UCX  ERROR shm_unlink(/ucx_shm_posix_1577515) failed: No such file or directory
[1725067507.531642] [cluster-256-hpc-256:82494:0]        mm_posix.c:291  UCX  ERROR shm_unlink(/ucx_shm_posix_64bce674) failed: No such file or directory
[1725067507.531658] [cluster-256-hpc-256:84479:0]        mm_posix.c:291  UCX  ERROR shm_unlink(/ucx_shm_posix_575500cf) failed: No such file or directory
[1725067507.531712] [cluster-256-hpc-256:84479:0]        mm_posix.c:291  UCX  ERROR shm_unlink(/ucx_shm_posix_70c69aa5) failed: No such file or directory
[1725067507.531742] [cluster-256-hpc-256:82982:0]        mm_posix.c:291  UCX  ERROR shm_unlink(/ucx_shm_posix_4b356eef) failed: No such file or directory
[1725067507.531793] [cluster-256-hpc-256:82982:0]        mm_posix.c:291  UCX  ERROR shm_unlink(/ucx_shm_posix_6c12b7c2) failed: No such file or directory
[1725067507.531895] [cluster-256-hpc-256:82321:0]        mm_posix.c:291  UCX  ERROR shm_unlink(/ucx_shm_posix_44cac9a3) failed: No such file or directory
[1725067507.531944] [cluster-256-hpc-256:82321:0]        mm_posix.c:291  UCX  ERROR shm_unlink(/ucx_shm_posix_50d129d2) failed: No such file or directory
[1725067507.532056] [cluster-256-hpc-256:83845:0]        mm_posix.c:291  UCX  ERROR shm_unlink(/ucx_shm_posix_7e9b48d4) failed: No such file or directory
[1725067507.532117] [cluster-256-hpc-256:83845:0]        mm_posix.c:291  UCX  ERROR shm_unlink(/ucx_shm_posix_2dee6750) failed: No such file or directory
[1725067507.533727] [cluster-256-hpc-256:82075:0]        mm_posix.c:291  UCX  ERROR shm_unlink(/ucx_shm_posix_15c02ab2) failed: No such file or directory
[1725067507.533780] [cluster-256-hpc-256:82075:0]        mm_posix.c:291  UCX  ERROR shm_unlink(/ucx_shm_posix_7e64afa3) failed: No such file or directory
[1725067507.534197] [cluster-256-hpc-256:82739:0]        mm_posix.c:291  UCX  ERROR shm_unlink(/ucx_shm_posix_3922f068) failed: No such file or directory
[1725067507.534257] [cluster-256-hpc-256:82739:0]        mm_posix.c:291  UCX  ERROR shm_unlink(/ucx_shm_posix_6512a6fb) failed: No such file or directory
[1725067507.534997] [cluster-256-hpc-256:82436:0]        mm_posix.c:291  UCX  ERROR shm_unlink(/ucx_shm_posix_5fe03566) failed: No such file or directory
[1725067507.535045] [cluster-256-hpc-256:82436:0]        mm_posix.c:291  UCX  ERROR shm_unlink(/ucx_shm_posix_3840f261) failed: No such file or directory
[1725067507.536483] [cluster-256-hpc-256:82322:0]        mm_posix.c:291  UCX  ERROR shm_unlink(/ucx_shm_posix_5389b882) failed: No such file or directory
[1725067507.536547] [cluster-256-hpc-256:82322:0]        mm_posix.c:291  UCX  ERROR shm_unlink(/ucx_shm_posix_3af213c6) failed: No such file or directory
[1725067507.537120] [cluster-256-hpc-256:82524:0]        mm_posix.c:291  UCX  ERROR shm_unlink(/ucx_shm_posix_6a27a479) failed: No such file or directory
[1725067507.537179] [cluster-256-hpc-256:82524:0]        mm_posix.c:291  UCX  ERROR shm_unlink(/ucx_shm_posix_7952a215) failed: No such file or directory
[1725067507.538164] [cluster-256-hpc-256:82042:0]        mm_posix.c:291  UCX  ERROR shm_unlink(/ucx_shm_posix_3ff803b) failed: No such file or directory
[1725067507.538233] [cluster-256-hpc-256:82042:0]        mm_posix.c:291  UCX  ERROR shm_unlink(/ucx_shm_posix_515b0c46) failed: No such file or directory
[1725067507.538796] [cluster-256-hpc-256:82400:0]        mm_posix.c:291  UCX  ERROR shm_unlink(/ucx_shm_posix_65262c24) failed: No such file or directory
[1725067507.538876] [cluster-256-hpc-256:82400:0]        mm_posix.c:291  UCX  ERROR shm_unlink(/ucx_shm_posix_358a0e13) failed: No such file or directory
[1725067507.538962] [cluster-256-hpc-256:83272:0]        mm_posix.c:291  UCX  ERROR shm_unlink(/ucx_shm_posix_4d4f3f0e) failed: No such file or directory
[1725067507.539021] [cluster-256-hpc-256:83272:0]        mm_posix.c:291  UCX  ERROR shm_unlink(/ucx_shm_posix_24ae2078) failed: No such file or directory
[1725067507.539346] [cluster-256-hpc-256:82940:0]        mm_posix.c:291  UCX  ERROR shm_unlink(/ucx_shm_posix_84d90c4) failed: No such file or directory
[1725067507.539399] [cluster-256-hpc-256:82940:0]        mm_posix.c:291  UCX  ERROR shm_unlink(/ucx_shm_posix_3818a251) failed: No such file or directory
[1725067507.539340] [cluster-256-hpc-256:82521:0]        mm_posix.c:291  UCX  ERROR shm_unlink(/ucx_shm_posix_6a5a890e) failed: No such file or directory
[1725067507.539413] [cluster-256-hpc-256:82521:0]        mm_posix.c:291  UCX  ERROR shm_unlink(/ucx_shm_posix_5bedc09d) failed: No such file or directory
[1725067507.539388] [cluster-256-hpc-256:82769:0]        mm_posix.c:291  UCX  ERROR shm_unlink(/ucx_shm_posix_12904980) failed: No such file or directory
[1725067507.539486] [cluster-256-hpc-256:83134:0]        mm_posix.c:291  UCX  ERROR shm_unlink(/ucx_shm_posix_1ce1cb6) failed: No such file or directory
[1725067507.539456] [cluster-256-hpc-256:82769:0]        mm_posix.c:291  UCX  ERROR shm_unlink(/ucx_shm_posix_7e883a5a) failed: No such file or directory
[1725067507.539502] [cluster-256-hpc-256:82382:0]        mm_posix.c:291  UCX  ERROR shm_unlink(/ucx_shm_posix_546a678d) failed: No such file or directory
[1725067507.539563] [cluster-256-hpc-256:82382:0]        mm_posix.c:291  UCX  ERROR shm_unlink(/ucx_shm_posix_2f79d549) failed: No such file or directory
[1725067507.539403] [cluster-256-hpc-256:82247:0]        mm_posix.c:291  UCX  ERROR shm_unlink(/ucx_shm_posix_cdc629) failed: No such file or directory
[1725067507.539453] [cluster-256-hpc-256:82247:0]        mm_posix.c:291  UCX  ERROR shm_unlink(/ucx_shm_posix_19575dfc) failed: No such file or directory
[1725067507.539568] [cluster-256-hpc-256:83134:0]        mm_posix.c:291  UCX  ERROR shm_unlink(/ucx_shm_posix_65525890) failed: No such file or directory
[1725067507.539573] [cluster-256-hpc-256:82873:0]        mm_posix.c:291  UCX  ERROR shm_unlink(/ucx_shm_posix_69d9b1b9) failed: No such file or directory
[1725067507.539634] [cluster-256-hpc-256:82873:0]        mm_posix.c:291  UCX  ERROR shm_unlink(/ucx_shm_posix_710a1eec) failed: No such file or directory
[1725067507.539765] [cluster-256-hpc-256:82443:0]        mm_posix.c:291  UCX  ERROR shm_unlink(/ucx_shm_posix_40e6864b) failed: No such file or directory
[1725067507.539816] [cluster-256-hpc-256:82443:0]        mm_posix.c:291  UCX  ERROR shm_unlink(/ucx_shm_posix_dcef0da) failed: No such file or directory
[1725067507.539771] [cluster-256-hpc-256:82552:0]        mm_posix.c:291  UCX  ERROR shm_unlink(/ucx_shm_posix_26f45123) failed: No such file or directory
[1725067507.539851] [cluster-256-hpc-256:82552:0]        mm_posix.c:291  UCX  ERROR shm_unlink(/ucx_shm_posix_66eeae47) failed: No such file or directory
[1725067507.539950] [cluster-256-hpc-256:84543:0]        mm_posix.c:291  UCX  ERROR shm_unlink(/ucx_shm_posix_741f0425) failed: No such file or directory
[1725067507.539927] [cluster-256-hpc-256:82865:0]        mm_posix.c:291  UCX  ERROR shm_unlink(/ucx_shm_posix_6ffbecbb) failed: No such file or directory
[1725067507.539984] [cluster-256-hpc-256:82865:0]        mm_posix.c:291  UCX  ERROR shm_unlink(/ucx_shm_posix_3542658) failed: No such file or directory
[1725067507.540024] [cluster-256-hpc-256:84543:0]        mm_posix.c:291  UCX  ERROR shm_unlink(/ucx_shm_posix_1b28c7bc) failed: No such file or directory
[1725067507.540126] [cluster-256-hpc-256:82459:0]        mm_posix.c:291  UCX  ERROR shm_unlink(/ucx_shm_posix_30843f6e) failed: No such file or directory
[1725067507.540199] [cluster-256-hpc-256:82459:0]        mm_posix.c:291  UCX  ERROR shm_unlink(/ucx_shm_posix_73b7b25f) failed: No such file or directory
[1725067507.540254] [cluster-256-hpc-256:83201:0]        mm_posix.c:291  UCX  ERROR shm_unlink(/ucx_shm_posix_649aa97) failed: No such file or directory
[1725067507.540305] [cluster-256-hpc-256:83201:0]        mm_posix.c:291  UCX  ERROR shm_unlink(/ucx_shm_posix_1a230843) failed: No such file or directory
[1725067507.540327] [cluster-256-hpc-256:82836:0]        mm_posix.c:291  UCX  ERROR shm_unlink(/ucx_shm_posix_63bd1118) failed: No such file or directory
[1725067507.540398] [cluster-256-hpc-256:82836:0]        mm_posix.c:291  UCX  ERROR shm_unlink(/ucx_shm_posix_43dccbec) failed: No such file or directory
[1725067507.540420] [cluster-256-hpc-256:83279:0]        mm_posix.c:291  UCX  ERROR shm_unlink(/ucx_shm_posix_163933a3) failed: No such file or directory
[1725067507.540472] [cluster-256-hpc-256:83279:0]        mm_posix.c:291  UCX  ERROR shm_unlink(/ucx_shm_posix_3fa8fff1) failed: No such file or directory
[1725067507.540486] [cluster-256-hpc-256:83010:0]        mm_posix.c:291  UCX  ERROR shm_unlink(/ucx_shm_posix_726d49f7) failed: No such file or directory
[1725067507.540570] [cluster-256-hpc-256:83010:0]        mm_posix.c:291  UCX  ERROR shm_unlink(/ucx_shm_posix_2c1a1738) failed: No such file or directory
[1725067507.540548] [cluster-256-hpc-256:84149:0]        mm_posix.c:291  UCX  ERROR shm_unlink(/ucx_shm_posix_5f944340) failed: No such file or directory
[1725067507.540608] [cluster-256-hpc-256:84149:0]        mm_posix.c:291  UCX  ERROR shm_unlink(/ucx_shm_posix_4388117e) failed: No such file or directory
[1725067507.540554] [cluster-256-hpc-256:83518:0]        mm_posix.c:291  UCX  ERROR shm_unlink(/ucx_shm_posix_1f7fd8c4) failed: No such file or directory
[1725067507.540616] [cluster-256-hpc-256:83518:0]        mm_posix.c:291  UCX  ERROR shm_unlink(/ucx_shm_posix_302dda00) failed: No such file or directory
[1725067507.540578] [cluster-256-hpc-256:82981:0]        mm_posix.c:291  UCX  ERROR shm_unlink(/ucx_shm_posix_2276f142) failed: No such file or directory
[1725067507.540675] [cluster-256-hpc-256:82981:0]        mm_posix.c:291  UCX  ERROR shm_unlink(/ucx_shm_posix_5e29bc49) failed: No such file or directory
[1725067507.540664] [cluster-256-hpc-256:84595:0]        mm_posix.c:291  UCX  ERROR shm_unlink(/ucx_shm_posix_3a4efa52) failed: No such file or directory
[1725067507.540730] [cluster-256-hpc-256:84595:0]        mm_posix.c:291  UCX  ERROR shm_unlink(/ucx_shm_posix_4f9d2db5) failed: No such file or directory
[1725067507.540779] [cluster-256-hpc-256:84277:0]        mm_posix.c:291  UCX  ERROR shm_unlink(/ucx_shm_posix_28c54490) failed: No such file or directory
[1725067507.540846] [cluster-256-hpc-256:84528:0]        mm_posix.c:291  UCX  ERROR shm_unlink(/ucx_shm_posix_199d3ad2) failed: No such file or directory
[1725067507.540871] [cluster-256-hpc-256:83612:0]        mm_posix.c:291  UCX  ERROR shm_unlink(/ucx_shm_posix_e7f4b83) failed: No such file or directory
[1725067507.540842] [cluster-256-hpc-256:84277:0]        mm_posix.c:291  UCX  ERROR shm_unlink(/ucx_shm_posix_550e1bba) failed: No such file or directory
[1725067507.540928] [cluster-256-hpc-256:83612:0]        mm_posix.c:291  UCX  ERROR shm_unlink(/ucx_shm_posix_68e60244) failed: No such file or directory
[1725067507.540903] [cluster-256-hpc-256:84528:0]        mm_posix.c:291  UCX  ERROR shm_unlink(/ucx_shm_posix_128fd9d4) failed: No such file or directory
[1725067507.541031] [cluster-256-hpc-256:82272:0]        mm_posix.c:291  UCX  ERROR shm_unlink(/ucx_shm_posix_39611add) failed: No such file or directory
[1725067507.541098] [cluster-256-hpc-256:82272:0]        mm_posix.c:291  UCX  ERROR shm_unlink(/ucx_shm_posix_386f1386) failed: No such file or directory
[1725067507.541256] [cluster-256-hpc-256:83099:0]        mm_posix.c:291  UCX  ERROR shm_unlink(/ucx_shm_posix_6bd4fef) failed: No such file or directory
[1725067507.541320] [cluster-256-hpc-256:83099:0]        mm_posix.c:291  UCX  ERROR shm_unlink(/ucx_shm_posix_40deedb) failed: No such file or directory
[1725067507.541446] [cluster-256-hpc-256:83332:0]        mm_posix.c:291  UCX  ERROR shm_unlink(/ucx_shm_posix_211ed494) failed: No such file or directory
[1725067507.541502] [cluster-256-hpc-256:83332:0]        mm_posix.c:291  UCX  ERROR shm_unlink(/ucx_shm_posix_1a618687) failed: No such file or directory
[1725067507.541857] [cluster-256-hpc-256:83670:0]        mm_posix.c:291  UCX  ERROR shm_unlink(/ucx_shm_posix_56cc16c4) failed: No such file or directory
[1725067507.541913] [cluster-256-hpc-256:83670:0]        mm_posix.c:291  UCX  ERROR shm_unlink(/ucx_shm_posix_1a8bf926) failed: No such file or directory
[1725067507.541917] [cluster-256-hpc-256:83954:0]        mm_posix.c:291  UCX  ERROR shm_unlink(/ucx_shm_posix_4421c7d1) failed: No such file or directory
[1725067507.541988] [cluster-256-hpc-256:83954:0]        mm_posix.c:291  UCX  ERROR shm_unlink(/ucx_shm_posix_17aa504) failed: No such file or directory
[1725067507.542240] [cluster-256-hpc-256:84063:0]        mm_posix.c:291  UCX  ERROR shm_unlink(/ucx_shm_posix_423932dc) failed: No such file or directory
[1725067507.542303] [cluster-256-hpc-256:84063:0]        mm_posix.c:291  UCX  ERROR shm_unlink(/ucx_shm_posix_646ba21b) failed: No such file or directory
[1725067507.542443] [cluster-256-hpc-256:83696:0]        mm_posix.c:291  UCX  ERROR shm_unlink(/ucx_shm_posix_44fdadb4) failed: No such file or directory
[1725067507.542491] [cluster-256-hpc-256:83696:0]        mm_posix.c:291  UCX  ERROR shm_unlink(/ucx_shm_posix_424e4ca1) failed: No such file or directory
[1725067507.542554] [cluster-256-hpc-256:82941:0]        mm_posix.c:291  UCX  ERROR shm_unlink(/ucx_shm_posix_2dc2b327) failed: No such file or directory
[1725067507.542602] [cluster-256-hpc-256:82941:0]        mm_posix.c:291  UCX  ERROR shm_unlink(/ucx_shm_posix_5d1128e) failed: No such file or directory
[1725067507.542758] [cluster-256-hpc-256:83913:0]        mm_posix.c:291  UCX  ERROR shm_unlink(/ucx_shm_posix_335e4a8c) failed: No such file or directory
[1725067507.542804] [cluster-256-hpc-256:83913:0]        mm_posix.c:291  UCX  ERROR shm_unlink(/ucx_shm_posix_2e549cb1) failed: No such file or directory
[1725067507.542888] [cluster-256-hpc-256:82327:0]        mm_posix.c:291  UCX  ERROR shm_unlink(/ucx_shm_posix_36c03b53) failed: No such file or directory
[1725067507.542951] [cluster-256-hpc-256:83738:0]        mm_posix.c:291  UCX  ERROR shm_unlink(/ucx_shm_posix_5ce4f1) failed: No such file or directory
[1725067507.542970] [cluster-256-hpc-256:82327:0]        mm_posix.c:291  UCX  ERROR shm_unlink(/ucx_shm_posix_b03b84d) failed: No such file or directory
[1725067507.542943] [cluster-256-hpc-256:84094:0]        mm_posix.c:291  UCX  ERROR shm_unlink(/ucx_shm_posix_66155674) failed: No such file or directory
[1725067507.543010] [cluster-256-hpc-256:84094:0]        mm_posix.c:291  UCX  ERROR shm_unlink(/ucx_shm_posix_79f77091) failed: No such file or directory
[1725067507.543008] [cluster-256-hpc-256:83738:0]        mm_posix.c:291  UCX  ERROR shm_unlink(/ucx_shm_posix_56fd39a4) failed: No such file or directory
[1725067507.543121] [cluster-256-hpc-256:83338:0]        mm_posix.c:291  UCX  ERROR shm_unlink(/ucx_shm_posix_6388da78) failed: No such file or directory
[1725067507.543186] [cluster-256-hpc-256:83338:0]        mm_posix.c:291  UCX  ERROR shm_unlink(/ucx_shm_posix_26b509d9) failed: No such file or directory
[1725067507.543092] [cluster-256-hpc-256:83530:0]        mm_posix.c:291  UCX  ERROR shm_unlink(/ucx_shm_posix_1a44b92d) failed: No such file or directory
[1725067507.543156] [cluster-256-hpc-256:83530:0]        mm_posix.c:291  UCX  ERROR shm_unlink(/ucx_shm_posix_4ce22c6) failed: No such file or directory
[1725067507.543102] [cluster-256-hpc-256:83370:0]        mm_posix.c:291  UCX  ERROR shm_unlink(/ucx_shm_posix_7fd8b213) failed: No such file or directory
[1725067507.543160] [cluster-256-hpc-256:83370:0]        mm_posix.c:291  UCX  ERROR shm_unlink(/ucx_shm_posix_1d7bd10) failed: No such file or directory
[1725067507.543090] [cluster-256-hpc-256:83883:0]        mm_posix.c:291  UCX  ERROR shm_unlink(/ucx_shm_posix_28a92243) failed: No such file or directory
[1725067507.543139] [cluster-256-hpc-256:83883:0]        mm_posix.c:291  UCX  ERROR shm_unlink(/ucx_shm_posix_3910513) failed: No such file or directory
[1725067507.543155] [cluster-256-hpc-256:84427:0]        mm_posix.c:291  UCX  ERROR shm_unlink(/ucx_shm_posix_271096c8) failed: No such file or directory
[1725067507.543253] [cluster-256-hpc-256:84427:0]        mm_posix.c:291  UCX  ERROR shm_unlink(/ucx_shm_posix_345c59a1) failed: No such file or directory
[1725067507.543244] [cluster-256-hpc-256:83748:0]        mm_posix.c:291  UCX  ERROR shm_unlink(/ucx_shm_posix_607badb3) failed: No such file or directory
[1725067507.543291] [cluster-256-hpc-256:83748:0]        mm_posix.c:291  UCX  ERROR shm_unlink(/ucx_shm_posix_752ee379) failed: No such file or directory
[1725067507.543337] [cluster-256-hpc-256:82543:0]        mm_posix.c:291  UCX  ERROR shm_unlink(/ucx_shm_posix_4402a035) failed: No such file or directory
[1725067507.543388] [cluster-256-hpc-256:82543:0]        mm_posix.c:291  UCX  ERROR shm_unlink(/ucx_shm_posix_1eea8705) failed: No such file or directory
[1725067507.543397] [cluster-256-hpc-256:84132:0]        mm_posix.c:291  UCX  ERROR shm_unlink(/ucx_shm_posix_2eb1066c) failed: No such file or directory
[1725067507.543448] [cluster-256-hpc-256:84132:0]        mm_posix.c:291  UCX  ERROR shm_unlink(/ucx_shm_posix_680b7a19) failed: No such file or directory
[1725067507.543470] [cluster-256-hpc-256:84395:0]        mm_posix.c:291  UCX  ERROR shm_unlink(/ucx_shm_posix_2914ed90) failed: No such file or directory
[1725067507.543526] [cluster-256-hpc-256:84395:0]        mm_posix.c:291  UCX  ERROR shm_unlink(/ucx_shm_posix_3296eb1a) failed: No such file or directory
[1725067507.543575] [cluster-256-hpc-256:83611:0]        mm_posix.c:291  UCX  ERROR shm_unlink(/ucx_shm_posix_7dff37c8) failed: No such file or directory
[1725067507.543606] [cluster-256-hpc-256:83130:0]        mm_posix.c:291  UCX  ERROR shm_unlink(/ucx_shm_posix_4c030e7e) failed: No such file or directory
[1725067507.543659] [cluster-256-hpc-256:83130:0]        mm_posix.c:291  UCX  ERROR shm_unlink(/ucx_shm_posix_1c001679) failed: No such file or directory
[1725067507.543627] [cluster-256-hpc-256:83611:0]        mm_posix.c:291  UCX  ERROR shm_unlink(/ucx_shm_posix_530c84db) failed: No such file or directory
[1725067507.543720] [cluster-256-hpc-256:83379:0]        mm_posix.c:291  UCX  ERROR shm_unlink(/ucx_shm_posix_4e1ca8be) failed: No such file or directory
[1725067507.543772] [cluster-256-hpc-256:83379:0]        mm_posix.c:291  UCX  ERROR shm_unlink(/ucx_shm_posix_1e6c0e4d) failed: No such file or directory
[1725067507.543971] [cluster-256-hpc-256:83726:0]        mm_posix.c:291  UCX  ERROR shm_unlink(/ucx_shm_posix_658ef27d) failed: No such file or directory
[1725067507.544027] [cluster-256-hpc-256:83726:0]        mm_posix.c:291  UCX  ERROR shm_unlink(/ucx_shm_posix_7b965568) failed: No such file or directory
[1725067507.544181] [cluster-256-hpc-256:83591:0]        mm_posix.c:291  UCX  ERROR shm_unlink(/ucx_shm_posix_4ab81065) failed: No such file or directory
[1725067507.544248] [cluster-256-hpc-256:83591:0]        mm_posix.c:291  UCX  ERROR shm_unlink(/ucx_shm_posix_11353db4) failed: No such file or directory
[1725067507.544407] [cluster-256-hpc-256:84433:0]        mm_posix.c:291  UCX  ERROR shm_unlink(/ucx_shm_posix_25d83a5a) failed: No such file or directory
[1725067507.544462] [cluster-256-hpc-256:84433:0]        mm_posix.c:291  UCX  ERROR shm_unlink(/ucx_shm_posix_7e487ac8) failed: No such file or directory
[1725067507.544590] [cluster-256-hpc-256:83132:0]        mm_posix.c:291  UCX  ERROR shm_unlink(/ucx_shm_posix_6f41c306) failed: No such file or directory
[1725067507.544645] [cluster-256-hpc-256:83132:0]        mm_posix.c:291  UCX  ERROR shm_unlink(/ucx_shm_posix_13e8d128) failed: No such file or directory
[1725067507.544627] [cluster-256-hpc-256:84270:0]        mm_posix.c:291  UCX  ERROR shm_unlink(/ucx_shm_posix_30414ff9) failed: No such file or directory
[1725067507.544680] [cluster-256-hpc-256:84270:0]        mm_posix.c:291  UCX  ERROR shm_unlink(/ucx_shm_posix_7710d2dc) failed: No such file or directory
[1725067507.544698] [cluster-256-hpc-256:84007:0]        mm_posix.c:291  UCX  ERROR shm_unlink(/ucx_shm_posix_e924813) failed: No such file or directory
[1725067507.544766] [cluster-256-hpc-256:84007:0]        mm_posix.c:291  UCX  ERROR shm_unlink(/ucx_shm_posix_4ec1e57f) failed: No such file or directory
[1725067507.545062] [cluster-256-hpc-256:82814:0]        mm_posix.c:291  UCX  ERROR shm_unlink(/ucx_shm_posix_145a4af8) failed: No such file or directory
[1725067507.545112] [cluster-256-hpc-256:82814:0]        mm_posix.c:291  UCX  ERROR shm_unlink(/ucx_shm_posix_6d04288a) failed: No such file or directory
[1725067507.545102] [cluster-256-hpc-256:82392:0]        mm_posix.c:291  UCX  ERROR shm_unlink(/ucx_shm_posix_4789abd9) failed: No such file or directory
[1725067507.545140] [cluster-256-hpc-256:82761:0]        mm_posix.c:291  UCX  ERROR shm_unlink(/ucx_shm_posix_57c127bb) failed: No such file or directory
[1725067507.545196] [cluster-256-hpc-256:82761:0]        mm_posix.c:291  UCX  ERROR shm_unlink(/ucx_shm_posix_5675fbcd) failed: No such file or directory
[1725067507.545201] [cluster-256-hpc-256:83200:0]        mm_posix.c:291  UCX  ERROR shm_unlink(/ucx_shm_posix_3611dfef) failed: No such file or directory
[1725067507.545223] [cluster-256-hpc-256:84258:0]        mm_posix.c:291  UCX  ERROR shm_unlink(/ucx_shm_posix_7be7e4cf) failed: No such file or directory
[1725067507.545157] [cluster-256-hpc-256:82392:0]        mm_posix.c:291  UCX  ERROR shm_unlink(/ucx_shm_posix_3811ced9) failed: No such file or directory
[1725067507.545270] [cluster-256-hpc-256:84258:0]        mm_posix.c:291  UCX  ERROR shm_unlink(/ucx_shm_posix_41421d6e) failed: No such file or directory
[1725067507.545275] [cluster-256-hpc-256:83477:0]        mm_posix.c:291  UCX  ERROR shm_unlink(/ucx_shm_posix_57d87efd) failed: No such file or directory
[1725067507.545259] [cluster-256-hpc-256:83200:0]        mm_posix.c:291  UCX  ERROR shm_unlink(/ucx_shm_posix_660ffc08) failed: No such file or directory
[1725067507.545344] [cluster-256-hpc-256:83477:0]        mm_posix.c:291  UCX  ERROR shm_unlink(/ucx_shm_posix_129b9c2f) failed: No such file or directory
[1725067507.545402] [cluster-256-hpc-256:84229:0]        mm_posix.c:291  UCX  ERROR shm_unlink(/ucx_shm_posix_5f95fe7e) failed: No such file or directory
[1725067507.545452] [cluster-256-hpc-256:84229:0]        mm_posix.c:291  UCX  ERROR shm_unlink(/ucx_shm_posix_50015b6) failed: No such file or directory
[1725067507.545811] [cluster-256-hpc-256:83509:0]        mm_posix.c:291  UCX  ERROR shm_unlink(/ucx_shm_posix_43e40049) failed: No such file or directory
[1725067507.545874] [cluster-256-hpc-256:83509:0]        mm_posix.c:291  UCX  ERROR shm_unlink(/ucx_shm_posix_2b76a9a9) failed: No such file or directory
[1725067507.545870] [cluster-256-hpc-256:83275:0]        mm_posix.c:291  UCX  ERROR shm_unlink(/ucx_shm_posix_73e5728c) failed: No such file or directory
[1725067507.545931] [cluster-256-hpc-256:83275:0]        mm_posix.c:291  UCX  ERROR shm_unlink(/ucx_shm_posix_d71627d) failed: No such file or directory
[1725067507.545843] [cluster-256-hpc-256:83872:0]        mm_posix.c:291  UCX  ERROR shm_unlink(/ucx_shm_posix_7b695e4d) failed: No such file or directory
[1725067507.545910] [cluster-256-hpc-256:83872:0]        mm_posix.c:291  UCX  ERROR shm_unlink(/ucx_shm_posix_772e3d29) failed: No such file or directory
[1725067507.545945] [cluster-256-hpc-256:83463:0]        mm_posix.c:291  UCX  ERROR shm_unlink(/ucx_shm_posix_34993ed8) failed: No such file or directory
[1725067507.545998] [cluster-256-hpc-256:83463:0]        mm_posix.c:291  UCX  ERROR shm_unlink(/ucx_shm_posix_4ee69e34) failed: No such file or directory
[1725067507.546050] [cluster-256-hpc-256:82492:0]        mm_posix.c:291  UCX  ERROR shm_unlink(/ucx_shm_posix_b05ab8a) failed: No such file or directory
[1725067507.546108] [cluster-256-hpc-256:82492:0]        mm_posix.c:291  UCX  ERROR shm_unlink(/ucx_shm_posix_41fa0e81) failed: No such file or directory
[1725067507.546078] [cluster-256-hpc-256:83952:0]        mm_posix.c:291  UCX  ERROR shm_unlink(/ucx_shm_posix_3d94bfc4) failed: No such file or directory
[1725067507.546166] [cluster-256-hpc-256:84102:0]        mm_posix.c:291  UCX  ERROR shm_unlink(/ucx_shm_posix_795a7557) failed: No such file or directory
[1725067507.546155] [cluster-256-hpc-256:83952:0]        mm_posix.c:291  UCX  ERROR shm_unlink(/ucx_shm_posix_108f4afb) failed: No such file or directory
[1725067507.546226] [cluster-256-hpc-256:84102:0]        mm_posix.c:291  UCX  ERROR shm_unlink(/ucx_shm_posix_58dbc74b) failed: No such file or directory
[1725067507.546719] [cluster-256-hpc-256:84525:0]        mm_posix.c:291  UCX  ERROR shm_unlink(/ucx_shm_posix_5de338a9) failed: No such file or directory
[1725067507.546778] [cluster-256-hpc-256:84525:0]        mm_posix.c:291  UCX  ERROR shm_unlink(/ucx_shm_posix_3128dde4) failed: No such file or directory
[1725067507.546770] [cluster-256-hpc-256:84386:0]        mm_posix.c:291  UCX  ERROR shm_unlink(/ucx_shm_posix_293a6256) failed: No such file or directory
[1725067507.546837] [cluster-256-hpc-256:84386:0]        mm_posix.c:291  UCX  ERROR shm_unlink(/ucx_shm_posix_1d04d820) failed: No such file or directory
[1725067507.546985] [cluster-256-hpc-256:84004:0]        mm_posix.c:291  UCX  ERROR shm_unlink(/ucx_shm_posix_464361ef) failed: No such file or directory
[1725067507.547067] [cluster-256-hpc-256:84004:0]        mm_posix.c:291  UCX  ERROR shm_unlink(/ucx_shm_posix_469c56c0) failed: No such file or directory
[1725067507.546994] [cluster-256-hpc-256:84190:0]        mm_posix.c:291  UCX  ERROR shm_unlink(/ucx_shm_posix_78092538) failed: No such file or directory
[1725067507.547044] [cluster-256-hpc-256:84190:0]        mm_posix.c:291  UCX  ERROR shm_unlink(/ucx_shm_posix_5dcb6a50) failed: No such file or directory
[1725067507.547132] [cluster-256-hpc-256:84607:0]        mm_posix.c:291  UCX  ERROR shm_unlink(/ucx_shm_posix_784d4ee3) failed: No such file or directory
[1725067507.547217] [cluster-256-hpc-256:84607:0]        mm_posix.c:291  UCX  ERROR shm_unlink(/ucx_shm_posix_37e7bc6d) failed: No such file or directory
[1725067507.547332] [cluster-256-hpc-256:84319:0]        mm_posix.c:291  UCX  ERROR shm_unlink(/ucx_shm_posix_4f288b3d) failed: No such file or directory
[1725067507.547389] [cluster-256-hpc-256:84319:0]        mm_posix.c:291  UCX  ERROR shm_unlink(/ucx_shm_posix_34e388c5) failed: No such file or directory
[1725067507.547580] [cluster-256-hpc-256:84526:0]        mm_posix.c:291  UCX  ERROR shm_unlink(/ucx_shm_posix_1cd90c6a) failed: No such file or directory
[1725067507.547628] [cluster-256-hpc-256:84526:0]        mm_posix.c:291  UCX  ERROR shm_unlink(/ucx_shm_posix_75f2805f) failed: No such file or directory
[1725067507.547544] [cluster-256-hpc-256:84429:0]        mm_posix.c:291  UCX  ERROR shm_unlink(/ucx_shm_posix_77cefdb7) failed: No such file or directory
[1725067507.547605] [cluster-256-hpc-256:84429:0]        mm_posix.c:291  UCX  ERROR shm_unlink(/ucx_shm_posix_27ebec4b) failed: No such file or directory
[1725067507.547589] [cluster-256-hpc-256:84338:0]        mm_posix.c:291  UCX  ERROR shm_unlink(/ucx_shm_posix_37d02e41) failed: No such file or directory
[1725067507.547639] [cluster-256-hpc-256:84338:0]        mm_posix.c:291  UCX  ERROR shm_unlink(/ucx_shm_posix_35214dbb) failed: No such file or directory
[1725067507.547735] [cluster-256-hpc-256:84580:0]        mm_posix.c:291  UCX  ERROR shm_unlink(/ucx_shm_posix_57ad46f8) failed: No such file or directory
[1725067507.547787] [cluster-256-hpc-256:84580:0]        mm_posix.c:291  UCX  ERROR shm_unlink(/ucx_shm_posix_55defd8d) failed: No such file or directory
[1725067507.547771] [cluster-256-hpc-256:83039:0]        mm_posix.c:291  UCX  ERROR shm_unlink(/ucx_shm_posix_136f9d8b) failed: No such file or directory
[1725067507.547839] [cluster-256-hpc-256:83039:0]        mm_posix.c:291  UCX  ERROR shm_unlink(/ucx_shm_posix_7b20667) failed: No such file or directory
[1725067507.547939] [cluster-256-hpc-256:83769:0]        mm_posix.c:291  UCX  ERROR shm_unlink(/ucx_shm_posix_6b065342) failed: No such file or directory
[1725067507.547905] [cluster-256-hpc-256:82051:0]        mm_posix.c:291  UCX  ERROR shm_unlink(/ucx_shm_posix_5cafd40b) failed: No such file or directory
[1725067507.547960] [cluster-256-hpc-256:82051:0]        mm_posix.c:291  UCX  ERROR shm_unlink(/ucx_shm_posix_2dcc6cf4) failed: No such file or directory
[1725067507.547999] [cluster-256-hpc-256:83769:0]        mm_posix.c:291  UCX  ERROR shm_unlink(/ucx_shm_posix_1077ae0a) failed: No such file or directory
[1725067507.551098] [cluster-256-hpc-256:84503:0]        mm_posix.c:291  UCX  ERROR shm_unlink(/ucx_shm_posix_16dd324b) failed: No such file or directory
[1725067507.551274] [cluster-256-hpc-256:84503:0]        mm_posix.c:291  UCX  ERROR shm_unlink(/ucx_shm_posix_55710ba6) failed: No such file or directory
End time: 1725067507
