Start time: 1725067547
WARNING on proc 0: Cannot open log.lammps for writing: Read-only file system (src/lammps.cpp:511)
LAMMPS (17 Apr 2024 - Development - a8687b5)
OMP_NUM_THREADS environment is not set. Defaulting to 1 thread. (src/comm.cpp:98)
  using 1 OpenMP thread(s) per MPI task
Reading data file ...
  triclinic box = (0 0 0) to (22.326 11.1412 13.778966) with tilt (0 -5.02603 0)
  32 by 16 by 24 MPI processor grid
  reading atoms ...
  304 atoms
  reading velocities ...
  304 velocities
  read_data CPU = 0.197 seconds
Replication is creating a 64x64x32 = 131072 times larger system...
  triclinic box = (0 0 0) to (1428.864 713.0368 440.92691) with tilt (0 -160.83296 0)
  32 by 24 by 16 MPI processor grid
  bounding box image = (0 -1 -1) to (0 1 1)
  bounding box extra memory = 0.03 MB
  average # of replicas added to proc = 43.93 out of 131072 (0.03%)
  39845888 atoms
  replicate CPU = 0.234 seconds

CITE-CITE-CITE-CITE-CITE-CITE-CITE-CITE-CITE-CITE-CITE-CITE-CITE

Your simulation uses code contributions which should be cited:
- pair reaxff command: doi:10.1016/j.parco.2011.08.005
- fix qeq/reaxff command: doi:10.1016/j.parco.2011.08.005
The log file lists these citations in BibTeX format.

CITE-CITE-CITE-CITE-CITE-CITE-CITE-CITE-CITE-CITE-CITE-CITE-CITE

Neighbor list info ...
  update: every = 20 steps, delay = 0 steps, check = no
  max neighbors/atom: 2000, page size: 100000
  master list distance cutoff = 11
  ghost atom cutoff = 11
  binsize = 5.5, bins = 290 130 81
  2 neighbor lists, perpetual/occasional/extra = 2 0 0
  (1) pair reaxff, perpetual
      attributes: half, newton off, ghost
      pair build: half/bin/ghost/newtoff
      stencil: full/ghost/bin/3d
      bin: standard
  (2) fix qeq/reax, perpetual, copy from (1)
      attributes: half, newton off
      pair build: copy
      stencil: none
      bin: none
Setting up Verlet run ...
  Unit style    : real
  Current step  : 0
  Time step     : 0.1
Per MPI rank memory allocation (min/avg/max) = 252.6 | 252.8 | 253 Mbytes
   Step          Temp          PotEng         Press          E_vdwl         E_coul         Volume    
         0   300           -113.27833      439.02048     -111.57687     -1.7014647      4.4923072e+08
        10   300.76708     -113.28045      807.30078     -111.57901     -1.7014362      4.4923072e+08
        20   302.42351     -113.28524      1696.9908     -111.58392     -1.7013253      4.4923072e+08
        30   302.57588     -113.28557      4297.9273     -111.58447     -1.7010962      4.4923072e+08
        40   300.62223     -113.27967      6393.3851     -111.5789      -1.7007688      4.4923072e+08
        50   297.4189      -113.27008      6471.1308     -111.56968     -1.7004027      4.4923072e+08
        60   294.72953     -113.26202      6185.7111     -111.56199     -1.7000318      4.4923072e+08
        70   294.6668      -113.26179      6831.2232     -111.56213     -1.6996547      4.4923072e+08
        80   297.78807     -113.27107      8233.8672     -111.5718      -1.699276       4.4923072e+08
        90   301.67958     -113.28267      9372.0856     -111.58373     -1.6989385      4.4923072e+08
       100   302.56511     -113.28525      10370.591     -111.58656     -1.698695       4.4923072e+08
Loop time of 63.8064 on 12288 procs for 100 steps with 39845888 atoms

Performance: 0.014 ns/day, 1772.401 hours/ns, 1.567 timesteps/s, 62.448 Matom-step/s
99.8% CPU use with 12288 MPI tasks x 1 OpenMP threads

MPI task timing breakdown:
Section |  min time  |  avg time  |  max time  |%varavg| %total
---------------------------------------------------------------
Pair    | 20.441     | 23.296     | 33.948     |  12.4 | 36.51
Neigh   | 0.35802    | 0.37447    | 0.48425    |   1.0 |  0.59
Comm    | 0.050546   | 1.4726     | 11.58      |  94.3 |  2.31
Output  | 0.2806     | 1.2128     | 1.3042     |   5.6 |  1.90
Modify  | 29.094     | 37.447     | 38.325     |  15.1 | 58.69
Other   |            | 0.002872   |            |       |  0.00

Nlocal:        3242.67 ave        3269 max        3209 min
Histogram: 23 549 2171 1246 116 425 2815 3833 1068 42
Nghost:        12107.8 ave       12146 max       12063 min
Histogram: 61 401 1227 1688 1299 1933 3079 1959 573 68
Neighs:    1.07025e+06 ave 1.07789e+06 max 1.06022e+06 min
Histogram: 40 602 2069 1230 171 520 2842 3728 1040 46

Total # of neighbors = 1.3151174e+10
Ave neighs/atom = 330.05097
Neighbor list builds = 5
Dangerous builds not checked
Total wall time: 0:01:06
[1725067626.058353] [cluster-256-hpc-256:89924:0]        mm_posix.c:291  UCX  ERROR shm_unlink(/ucx_shm_posix_44c883a2) failed: No such file or directory
[1725067626.058418] [cluster-256-hpc-256:89924:0]        mm_posix.c:291  UCX  ERROR shm_unlink(/ucx_shm_posix_79f0fab1) failed: No such file or directory
[1725067626.059088] [cluster-256-hpc-256:90126:0]        mm_posix.c:291  UCX  ERROR shm_unlink(/ucx_shm_posix_2cee8a4f) failed: No such file or directory
[1725067626.059170] [cluster-256-hpc-256:90126:0]        mm_posix.c:291  UCX  ERROR shm_unlink(/ucx_shm_posix_2cdf4fd0) failed: No such file or directory
[1725067626.059127] [cluster-256-hpc-256:89907:0]        mm_posix.c:291  UCX  ERROR shm_unlink(/ucx_shm_posix_4e26e3ed) failed: No such file or directory
[1725067626.059216] [cluster-256-hpc-256:89907:0]        mm_posix.c:291  UCX  ERROR shm_unlink(/ucx_shm_posix_49322eff) failed: No such file or directory
[1725067626.059047] [cluster-256-hpc-256:90085:0]        mm_posix.c:291  UCX  ERROR shm_unlink(/ucx_shm_posix_e0827c2) failed: No such file or directory
[1725067626.059121] [cluster-256-hpc-256:90085:0]        mm_posix.c:291  UCX  ERROR shm_unlink(/ucx_shm_posix_14df6c5f) failed: No such file or directory
[1725067626.059093] [cluster-256-hpc-256:90161:0]        mm_posix.c:291  UCX  ERROR shm_unlink(/ucx_shm_posix_15bd3443) failed: No such file or directory
[1725067626.059238] [cluster-256-hpc-256:90161:0]        mm_posix.c:291  UCX  ERROR shm_unlink(/ucx_shm_posix_3d5c9849) failed: No such file or directory
[1725067626.059108] [cluster-256-hpc-256:89963:0]        mm_posix.c:291  UCX  ERROR shm_unlink(/ucx_shm_posix_611cbcf1) failed: No such file or directory
[1725067626.059190] [cluster-256-hpc-256:89963:0]        mm_posix.c:291  UCX  ERROR shm_unlink(/ucx_shm_posix_3cc1568f) failed: No such file or directory
[1725067626.059055] [cluster-256-hpc-256:90125:0]        mm_posix.c:291  UCX  ERROR shm_unlink(/ucx_shm_posix_238abcaf) failed: No such file or directory
[1725067626.059147] [cluster-256-hpc-256:90125:0]        mm_posix.c:291  UCX  ERROR shm_unlink(/ucx_shm_posix_4e97622c) failed: No such file or directory
[1725067626.059096] [cluster-256-hpc-256:90183:0]        mm_posix.c:291  UCX  ERROR shm_unlink(/ucx_shm_posix_48d51656) failed: No such file or directory
[1725067626.059173] [cluster-256-hpc-256:90183:0]        mm_posix.c:291  UCX  ERROR shm_unlink(/ucx_shm_posix_db0a5d9) failed: No such file or directory
[1725067626.059067] [cluster-256-hpc-256:90059:0]        mm_posix.c:291  UCX  ERROR shm_unlink(/ucx_shm_posix_414eb1bd) failed: No such file or directory
[1725067626.059131] [cluster-256-hpc-256:90124:0]        mm_posix.c:291  UCX  ERROR shm_unlink(/ucx_shm_posix_376fe22e) failed: No such file or directory
[1725067626.059233] [cluster-256-hpc-256:90124:0]        mm_posix.c:291  UCX  ERROR shm_unlink(/ucx_shm_posix_1bbc9b8) failed: No such file or directory
[1725067626.059122] [cluster-256-hpc-256:90034:0]        mm_posix.c:291  UCX  ERROR shm_unlink(/ucx_shm_posix_50076e76) failed: No such file or directory
[1725067626.059187] [cluster-256-hpc-256:90034:0]        mm_posix.c:291  UCX  ERROR shm_unlink(/ucx_shm_posix_47f01188) failed: No such file or directory
[1725067626.059157] [cluster-256-hpc-256:89820:0]        mm_posix.c:291  UCX  ERROR shm_unlink(/ucx_shm_posix_26144410) failed: No such file or directory
[1725067626.059268] [cluster-256-hpc-256:89820:0]        mm_posix.c:291  UCX  ERROR shm_unlink(/ucx_shm_posix_5eed8fae) failed: No such file or directory
[1725067626.059174] [cluster-256-hpc-256:89894:0]        mm_posix.c:291  UCX  ERROR shm_unlink(/ucx_shm_posix_550b6d92) failed: No such file or directory
[1725067626.059294] [cluster-256-hpc-256:89894:0]        mm_posix.c:291  UCX  ERROR shm_unlink(/ucx_shm_posix_1166ef93) failed: No such file or directory
[1725067626.059114] [cluster-256-hpc-256:90030:0]        mm_posix.c:291  UCX  ERROR shm_unlink(/ucx_shm_posix_6abbfdba) failed: No such file or directory
[1725067626.059185] [cluster-256-hpc-256:90030:0]        mm_posix.c:291  UCX  ERROR shm_unlink(/ucx_shm_posix_5cf95a17) failed: No such file or directory
[1725067626.059184] [cluster-256-hpc-256:89998:0]        mm_posix.c:291  UCX  ERROR shm_unlink(/ucx_shm_posix_5edb653b) failed: No such file or directory
[1725067626.059284] [cluster-256-hpc-256:89998:0]        mm_posix.c:291  UCX  ERROR shm_unlink(/ucx_shm_posix_172b40e7) failed: No such file or directory
[1725067626.059251] [cluster-256-hpc-256:90061:0]        mm_posix.c:291  UCX  ERROR shm_unlink(/ucx_shm_posix_7186655) failed: No such file or directory
[1725067626.059349] [cluster-256-hpc-256:90061:0]        mm_posix.c:291  UCX  ERROR shm_unlink(/ucx_shm_posix_4dd2137c) failed: No such file or directory
[1725067626.060346] [cluster-256-hpc-256:90059:0]        mm_posix.c:291  UCX  ERROR shm_unlink(/ucx_shm_posix_6e951c68) failed: No such file or directory
[1725067626.062783] [cluster-256-hpc-256:88594:0]        mm_posix.c:291  UCX  ERROR shm_unlink(/ucx_shm_posix_6ca55fe7) failed: No such file or directory
[1725067626.062847] [cluster-256-hpc-256:88594:0]        mm_posix.c:291  UCX  ERROR shm_unlink(/ucx_shm_posix_1740d955) failed: No such file or directory
[1725067626.062712] [cluster-256-hpc-256:88716:0]        mm_posix.c:291  UCX  ERROR shm_unlink(/ucx_shm_posix_23b46328) failed: No such file or directory
[1725067626.062763] [cluster-256-hpc-256:88716:0]        mm_posix.c:291  UCX  ERROR shm_unlink(/ucx_shm_posix_35dbeeb8) failed: No such file or directory
[1725067626.062729] [cluster-256-hpc-256:88820:0]        mm_posix.c:291  UCX  ERROR shm_unlink(/ucx_shm_posix_1b23961e) failed: No such file or directory
[1725067626.062787] [cluster-256-hpc-256:88820:0]        mm_posix.c:291  UCX  ERROR shm_unlink(/ucx_shm_posix_41925017) failed: No such file or directory
[1725067626.062702] [cluster-256-hpc-256:88913:0]        mm_posix.c:291  UCX  ERROR shm_unlink(/ucx_shm_posix_32b1d794) failed: No such file or directory
[1725067626.062766] [cluster-256-hpc-256:88913:0]        mm_posix.c:291  UCX  ERROR shm_unlink(/ucx_shm_posix_1dd63ecb) failed: No such file or directory
[1725067626.062752] [cluster-256-hpc-256:88976:0]        mm_posix.c:291  UCX  ERROR shm_unlink(/ucx_shm_posix_33816ba6) failed: No such file or directory
[1725067626.062799] [cluster-256-hpc-256:88976:0]        mm_posix.c:291  UCX  ERROR shm_unlink(/ucx_shm_posix_36ac9c50) failed: No such file or directory
[1725067626.062762] [cluster-256-hpc-256:89514:0]        mm_posix.c:291  UCX  ERROR shm_unlink(/ucx_shm_posix_1ef0f5b6) failed: No such file or directory
[1725067626.062809] [cluster-256-hpc-256:89514:0]        mm_posix.c:291  UCX  ERROR shm_unlink(/ucx_shm_posix_6923e881) failed: No such file or directory
[1725067626.063096] [cluster-256-hpc-256:88567:0]        mm_posix.c:291  UCX  ERROR shm_unlink(/ucx_shm_posix_296fe0ec) failed: No such file or directory
[1725067626.063216] [cluster-256-hpc-256:88567:0]        mm_posix.c:291  UCX  ERROR shm_unlink(/ucx_shm_posix_1320938a) failed: No such file or directory
[1725067626.064126] [cluster-256-hpc-256:87836:0]        mm_posix.c:291  UCX  ERROR shm_unlink(/ucx_shm_posix_60885b53) failed: No such file or directory
[1725067626.064219] [cluster-256-hpc-256:87960:0]        mm_posix.c:291  UCX  ERROR shm_unlink(/ucx_shm_posix_f7be2e7) failed: No such file or directory
[1725067626.064280] [cluster-256-hpc-256:88075:0]        mm_posix.c:291  UCX  ERROR shm_unlink(/ucx_shm_posix_22bd2910) failed: No such file or directory
[1725067626.064287] [cluster-256-hpc-256:88156:0]        mm_posix.c:291  UCX  ERROR shm_unlink(/ucx_shm_posix_28c8d0ce) failed: No such file or directory
[1725067626.064276] [cluster-256-hpc-256:88505:0]        mm_posix.c:291  UCX  ERROR shm_unlink(/ucx_shm_posix_76062ab) failed: No such file or directory
[1725067626.064330] [cluster-256-hpc-256:89299:0]        mm_posix.c:291  UCX  ERROR shm_unlink(/ucx_shm_posix_3929f386) failed: No such file or directory
[1725067626.064326] [cluster-256-hpc-256:89585:0]        mm_posix.c:291  UCX  ERROR shm_unlink(/ucx_shm_posix_19c0e163) failed: No such file or directory
[1725067626.064323] [cluster-256-hpc-256:87960:0]        mm_posix.c:291  UCX  ERROR shm_unlink(/ucx_shm_posix_499c26db) failed: No such file or directory
[1725067626.064304] [cluster-256-hpc-256:87836:0]        mm_posix.c:291  UCX  ERROR shm_unlink(/ucx_shm_posix_7306bcd7) failed: No such file or directory
[1725067626.064454] [cluster-256-hpc-256:88075:0]        mm_posix.c:291  UCX  ERROR shm_unlink(/ucx_shm_posix_6ba99813) failed: No such file or directory
[1725067626.064355] [cluster-256-hpc-256:88386:0]        mm_posix.c:291  UCX  ERROR shm_unlink(/ucx_shm_posix_5ef50c4) failed: No such file or directory
[1725067626.064450] [cluster-256-hpc-256:88386:0]        mm_posix.c:291  UCX  ERROR shm_unlink(/ucx_shm_posix_7bb880c5) failed: No such file or directory
[1725067626.064416] [cluster-256-hpc-256:88156:0]        mm_posix.c:291  UCX  ERROR shm_unlink(/ucx_shm_posix_395346f2) failed: No such file or directory
[1725067626.064403] [cluster-256-hpc-256:89212:0]        mm_posix.c:291  UCX  ERROR shm_unlink(/ucx_shm_posix_4b235ea) failed: No such file or directory
[1725067626.064473] [cluster-256-hpc-256:89212:0]        mm_posix.c:291  UCX  ERROR shm_unlink(/ucx_shm_posix_22c67be1) failed: No such file or directory
[1725067626.064406] [cluster-256-hpc-256:88505:0]        mm_posix.c:291  UCX  ERROR shm_unlink(/ucx_shm_posix_2522470e) failed: No such file or directory
[1725067626.064350] [cluster-256-hpc-256:89394:0]        mm_posix.c:291  UCX  ERROR shm_unlink(/ucx_shm_posix_102f066d) failed: No such file or directory
[1725067626.064446] [cluster-256-hpc-256:89394:0]        mm_posix.c:291  UCX  ERROR shm_unlink(/ucx_shm_posix_bafb99f) failed: No such file or directory
[1725067626.064437] [cluster-256-hpc-256:89299:0]        mm_posix.c:291  UCX  ERROR shm_unlink(/ucx_shm_posix_53599d86) failed: No such file or directory
[1725067626.064399] [cluster-256-hpc-256:89702:0]        mm_posix.c:291  UCX  ERROR shm_unlink(/ucx_shm_posix_4e05bcec) failed: No such file or directory
[1725067626.064506] [cluster-256-hpc-256:89702:0]        mm_posix.c:291  UCX  ERROR shm_unlink(/ucx_shm_posix_2998a55a) failed: No such file or directory
[1725067626.064404] [cluster-256-hpc-256:87606:0]        mm_posix.c:291  UCX  ERROR shm_unlink(/ucx_shm_posix_5f08a4dd) failed: No such file or directory
[1725067626.064488] [cluster-256-hpc-256:87606:0]        mm_posix.c:291  UCX  ERROR shm_unlink(/ucx_shm_posix_4650eb9) failed: No such file or directory
[1725067626.064318] [cluster-256-hpc-256:88032:0]        mm_posix.c:291  UCX  ERROR shm_unlink(/ucx_shm_posix_17d86c6f) failed: No such file or directory
[1725067626.064424] [cluster-256-hpc-256:88032:0]        mm_posix.c:291  UCX  ERROR shm_unlink(/ucx_shm_posix_41e33a5b) failed: No such file or directory
[1725067626.064431] [cluster-256-hpc-256:89585:0]        mm_posix.c:291  UCX  ERROR shm_unlink(/ucx_shm_posix_543782bd) failed: No such file or directory
[1725067626.064734] [cluster-256-hpc-256:87608:0]        mm_posix.c:291  UCX  ERROR shm_unlink(/ucx_shm_posix_4e4fd80e) failed: No such file or directory
[1725067626.064785] [cluster-256-hpc-256:88823:0]        mm_posix.c:291  UCX  ERROR shm_unlink(/ucx_shm_posix_4848ee4a) failed: No such file or directory
[1725067626.064864] [cluster-256-hpc-256:87971:0]        mm_posix.c:291  UCX  ERROR shm_unlink(/ucx_shm_posix_65aab90e) failed: No such file or directory
[1725067626.064881] [cluster-256-hpc-256:88149:0]        mm_posix.c:291  UCX  ERROR shm_unlink(/ucx_shm_posix_484bc7d8) failed: No such file or directory
[1725067626.064911] [cluster-256-hpc-256:88461:0]        mm_posix.c:291  UCX  ERROR shm_unlink(/ucx_shm_posix_2771ed4c) failed: No such file or directory
[1725067626.064886] [cluster-256-hpc-256:87608:0]        mm_posix.c:291  UCX  ERROR shm_unlink(/ucx_shm_posix_17a5b703) failed: No such file or directory
[1725067626.064921] [cluster-256-hpc-256:88895:0]        mm_posix.c:291  UCX  ERROR shm_unlink(/ucx_shm_posix_4244f85c) failed: No such file or directory
[1725067626.064948] [cluster-256-hpc-256:89471:0]        mm_posix.c:291  UCX  ERROR shm_unlink(/ucx_shm_posix_24f2ef1b) failed: No such file or directory
[1725067626.064907] [cluster-256-hpc-256:89571:0]        mm_posix.c:291  UCX  ERROR shm_unlink(/ucx_shm_posix_41ccefa) failed: No such file or directory
[1725067626.064986] [cluster-256-hpc-256:89570:0]        mm_posix.c:291  UCX  ERROR shm_unlink(/ucx_shm_posix_284d4e08) failed: No such file or directory
[1725067626.064950] [cluster-256-hpc-256:89668:0]        mm_posix.c:291  UCX  ERROR shm_unlink(/ucx_shm_posix_737cc228) failed: No such file or directory
[1725067626.064921] [cluster-256-hpc-256:89822:0]        mm_posix.c:291  UCX  ERROR shm_unlink(/ucx_shm_posix_3d4e3a5) failed: No such file or directory
[1725067626.065001] [cluster-256-hpc-256:89822:0]        mm_posix.c:291  UCX  ERROR shm_unlink(/ucx_shm_posix_3ce1f2ab) failed: No such file or directory
[1725067626.064937] [cluster-256-hpc-256:89764:0]        mm_posix.c:291  UCX  ERROR shm_unlink(/ucx_shm_posix_88c0930) failed: No such file or directory
[1725067626.065030] [cluster-256-hpc-256:88823:0]        mm_posix.c:291  UCX  ERROR shm_unlink(/ucx_shm_posix_680a0d70) failed: No such file or directory
[1725067626.064869] [cluster-256-hpc-256:87843:0]        mm_posix.c:291  UCX  ERROR shm_unlink(/ucx_shm_posix_7e6d61cf) failed: No such file or directory
[1725067626.065057] [cluster-256-hpc-256:87843:0]        mm_posix.c:291  UCX  ERROR shm_unlink(/ucx_shm_posix_125646ef) failed: No such file or directory
[1725067626.064888] [cluster-256-hpc-256:87807:0]        mm_posix.c:291  UCX  ERROR shm_unlink(/ucx_shm_posix_61dccc12) failed: No such file or directory
[1725067626.065080] [cluster-256-hpc-256:87807:0]        mm_posix.c:291  UCX  ERROR shm_unlink(/ucx_shm_posix_6235c4e3) failed: No such file or directory
[1725067626.064843] [cluster-256-hpc-256:87967:0]        mm_posix.c:291  UCX  ERROR shm_unlink(/ucx_shm_posix_499949a7) failed: No such file or directory
[1725067626.064919] [cluster-256-hpc-256:87967:0]        mm_posix.c:291  UCX  ERROR shm_unlink(/ucx_shm_posix_323dce98) failed: No such file or directory
[1725067626.065136] [cluster-256-hpc-256:88461:0]        mm_posix.c:291  UCX  ERROR shm_unlink(/ucx_shm_posix_6a444ed) failed: No such file or directory
[1725067626.065154] [cluster-256-hpc-256:89209:0]        mm_posix.c:291  UCX  ERROR shm_unlink(/ucx_shm_posix_62bbc4a2) failed: No such file or directory
[1725067626.064997] [cluster-256-hpc-256:88944:0]        mm_posix.c:291  UCX  ERROR shm_unlink(/ucx_shm_posix_5a63ade9) failed: No such file or directory
[1725067626.065278] [cluster-256-hpc-256:88944:0]        mm_posix.c:291  UCX  ERROR shm_unlink(/ucx_shm_posix_224dc8ce) failed: No such file or directory
[1725067626.065234] [cluster-256-hpc-256:88983:0]        mm_posix.c:291  UCX  ERROR shm_unlink(/ucx_shm_posix_5b95630f) failed: No such file or directory
[1725067626.065221] [cluster-256-hpc-256:89403:0]        mm_posix.c:291  UCX  ERROR shm_unlink(/ucx_shm_posix_7909bcf) failed: No such file or directory
[1725067626.064995] [cluster-256-hpc-256:89162:0]        mm_posix.c:291  UCX  ERROR shm_unlink(/ucx_shm_posix_6d5d730f) failed: No such file or directory
[1725067626.065270] [cluster-256-hpc-256:89162:0]        mm_posix.c:291  UCX  ERROR shm_unlink(/ucx_shm_posix_fcd42f6) failed: No such file or directory
[1725067626.065136] [cluster-256-hpc-256:89210:0]        mm_posix.c:291  UCX  ERROR shm_unlink(/ucx_shm_posix_4a154c0f) failed: No such file or directory
[1725067626.065321] [cluster-256-hpc-256:89210:0]        mm_posix.c:291  UCX  ERROR shm_unlink(/ucx_shm_posix_638c698) failed: No such file or directory
[1725067626.065004] [cluster-256-hpc-256:89300:0]        mm_posix.c:291  UCX  ERROR shm_unlink(/ucx_shm_posix_7a33cf39) failed: No such file or directory
[1725067626.065293] [cluster-256-hpc-256:89300:0]        mm_posix.c:291  UCX  ERROR shm_unlink(/ucx_shm_posix_e1cb059) failed: No such file or directory
[1725067626.064964] [cluster-256-hpc-256:89335:0]        mm_posix.c:291  UCX  ERROR shm_unlink(/ucx_shm_posix_c20987a) failed: No such file or directory
[1725067626.065225] [cluster-256-hpc-256:89335:0]        mm_posix.c:291  UCX  ERROR shm_unlink(/ucx_shm_posix_1d08ebd2) failed: No such file or directory
[1725067626.065051] [cluster-256-hpc-256:89669:0]        mm_posix.c:291  UCX  ERROR shm_unlink(/ucx_shm_posix_3ec33199) failed: No such file or directory
[1725067626.065101] [cluster-256-hpc-256:89393:0]        mm_posix.c:291  UCX  ERROR shm_unlink(/ucx_shm_posix_5c2f61ac) failed: No such file or directory
[1725067626.065318] [cluster-256-hpc-256:89393:0]        mm_posix.c:291  UCX  ERROR shm_unlink(/ucx_shm_posix_71b59c88) failed: No such file or directory
[1725067626.065156] [cluster-256-hpc-256:88895:0]        mm_posix.c:291  UCX  ERROR shm_unlink(/ucx_shm_posix_57ac64bc) failed: No such file or directory
[1725067626.065012] [cluster-256-hpc-256:89765:0]        mm_posix.c:291  UCX  ERROR shm_unlink(/ucx_shm_posix_17ced508) failed: No such file or directory
[1725067626.065252] [cluster-256-hpc-256:89765:0]        mm_posix.c:291  UCX  ERROR shm_unlink(/ucx_shm_posix_5d57dc22) failed: No such file or directory
[1725067626.065001] [cluster-256-hpc-256:89460:0]        mm_posix.c:291  UCX  ERROR shm_unlink(/ucx_shm_posix_3eef6dce) failed: No such file or directory
[1725067626.065304] [cluster-256-hpc-256:89460:0]        mm_posix.c:291  UCX  ERROR shm_unlink(/ucx_shm_posix_71325d6) failed: No such file or directory
[1725067626.065174] [cluster-256-hpc-256:89471:0]        mm_posix.c:291  UCX  ERROR shm_unlink(/ucx_shm_posix_1598c778) failed: No such file or directory
[1725067626.065141] [cluster-256-hpc-256:89571:0]        mm_posix.c:291  UCX  ERROR shm_unlink(/ucx_shm_posix_43cb4057) failed: No such file or directory
[1725067626.065265] [cluster-256-hpc-256:89570:0]        mm_posix.c:291  UCX  ERROR shm_unlink(/ucx_shm_posix_5d54abf8) failed: No such file or directory
[1725067626.065028] [cluster-256-hpc-256:89942:0]        mm_posix.c:291  UCX  ERROR shm_unlink(/ucx_shm_posix_2dc5c9e1) failed: No such file or directory
[1725067626.065302] [cluster-256-hpc-256:89942:0]        mm_posix.c:291  UCX  ERROR shm_unlink(/ucx_shm_posix_613ceb60) failed: No such file or directory
[1725067626.065074] [cluster-256-hpc-256:89679:0]        mm_posix.c:291  UCX  ERROR shm_unlink(/ucx_shm_posix_1f3dcc5e) failed: No such file or directory
[1725067626.065308] [cluster-256-hpc-256:89679:0]        mm_posix.c:291  UCX  ERROR shm_unlink(/ucx_shm_posix_6f726345) failed: No such file or directory
[1725067626.064926] [cluster-256-hpc-256:87605:0]        mm_posix.c:291  UCX  ERROR shm_unlink(/ucx_shm_posix_539c672) failed: No such file or directory
[1725067626.065235] [cluster-256-hpc-256:87605:0]        mm_posix.c:291  UCX  ERROR shm_unlink(/ucx_shm_posix_7cef1ea9) failed: No such file or directory
[1725067626.064939] [cluster-256-hpc-256:87607:0]        mm_posix.c:291  UCX  ERROR shm_unlink(/ucx_shm_posix_3c17e0d0) failed: No such file or directory
[1725067626.065162] [cluster-256-hpc-256:87607:0]        mm_posix.c:291  UCX  ERROR shm_unlink(/ucx_shm_posix_132468a6) failed: No such file or directory
[1725067626.065168] [cluster-256-hpc-256:87850:0]        mm_posix.c:291  UCX  ERROR shm_unlink(/ucx_shm_posix_7a39be60) failed: No such file or directory
[1725067626.064936] [cluster-256-hpc-256:87961:0]        mm_posix.c:291  UCX  ERROR shm_unlink(/ucx_shm_posix_7638d026) failed: No such file or directory
[1725067626.065131] [cluster-256-hpc-256:87961:0]        mm_posix.c:291  UCX  ERROR shm_unlink(/ucx_shm_posix_3087e694) failed: No such file or directory
[1725067626.065006] [cluster-256-hpc-256:87890:0]        mm_posix.c:291  UCX  ERROR shm_unlink(/ucx_shm_posix_52ca1f9e) failed: No such file or directory
[1725067626.065256] [cluster-256-hpc-256:87890:0]        mm_posix.c:291  UCX  ERROR shm_unlink(/ucx_shm_posix_40c1433a) failed: No such file or directory
[1725067626.064932] [cluster-256-hpc-256:88059:0]        mm_posix.c:291  UCX  ERROR shm_unlink(/ucx_shm_posix_3fdff65c) failed: No such file or directory
[1725067626.065120] [cluster-256-hpc-256:88059:0]        mm_posix.c:291  UCX  ERROR shm_unlink(/ucx_shm_posix_1a151b72) failed: No such file or directory
[1725067626.064959] [cluster-256-hpc-256:88047:0]        mm_posix.c:291  UCX  ERROR shm_unlink(/ucx_shm_posix_761bb28f) failed: No such file or directory
[1725067626.065342] [cluster-256-hpc-256:88047:0]        mm_posix.c:291  UCX  ERROR shm_unlink(/ucx_shm_posix_64b4a2cc) failed: No such file or directory
[1725067626.065158] [cluster-256-hpc-256:89764:0]        mm_posix.c:291  UCX  ERROR shm_unlink(/ucx_shm_posix_6ac548e2) failed: No such file or directory
[1725067626.065158] [cluster-256-hpc-256:88102:0]        mm_posix.c:291  UCX  ERROR shm_unlink(/ucx_shm_posix_26008d4d) failed: No such file or directory
[1725067626.065329] [cluster-256-hpc-256:88102:0]        mm_posix.c:291  UCX  ERROR shm_unlink(/ucx_shm_posix_774e3f55) failed: No such file or directory
[1725067626.064964] [cluster-256-hpc-256:88108:0]        mm_posix.c:291  UCX  ERROR shm_unlink(/ucx_shm_posix_6dd35613) failed: No such file or directory
[1725067626.065232] [cluster-256-hpc-256:88108:0]        mm_posix.c:291  UCX  ERROR shm_unlink(/ucx_shm_posix_1e1a9ac3) failed: No such file or directory
[1725067626.064954] [cluster-256-hpc-256:88189:0]        mm_posix.c:291  UCX  ERROR shm_unlink(/ucx_shm_posix_4e66ad23) failed: No such file or directory
[1725067626.065150] [cluster-256-hpc-256:88189:0]        mm_posix.c:291  UCX  ERROR shm_unlink(/ucx_shm_posix_682a2400) failed: No such file or directory
[1725067626.064948] [cluster-256-hpc-256:88143:0]        mm_posix.c:291  UCX  ERROR shm_unlink(/ucx_shm_posix_ccfd777) failed: No such file or directory
[1725067626.065241] [cluster-256-hpc-256:88143:0]        mm_posix.c:291  UCX  ERROR shm_unlink(/ucx_shm_posix_1f2d7512) failed: No such file or directory
[1725067626.065045] [cluster-256-hpc-256:88391:0]        mm_posix.c:291  UCX  ERROR shm_unlink(/ucx_shm_posix_5051ea11) failed: No such file or directory
[1725067626.065259] [cluster-256-hpc-256:88391:0]        mm_posix.c:291  UCX  ERROR shm_unlink(/ucx_shm_posix_62e71699) failed: No such file or directory
[1725067626.065041] [cluster-256-hpc-256:88553:0]        mm_posix.c:291  UCX  ERROR shm_unlink(/ucx_shm_posix_3aeb5a41) failed: No such file or directory
[1725067626.065345] [cluster-256-hpc-256:88553:0]        mm_posix.c:291  UCX  ERROR shm_unlink(/ucx_shm_posix_5219151d) failed: No such file or directory
[1725067626.065000] [cluster-256-hpc-256:88484:0]        mm_posix.c:291  UCX  ERROR shm_unlink(/ucx_shm_posix_373459c5) failed: No such file or directory
[1725067626.065365] [cluster-256-hpc-256:88484:0]        mm_posix.c:291  UCX  ERROR shm_unlink(/ucx_shm_posix_6bb68fd3) failed: No such file or directory
[1725067626.065082] [cluster-256-hpc-256:88149:0]        mm_posix.c:291  UCX  ERROR shm_unlink(/ucx_shm_posix_70575f00) failed: No such file or directory
[1725067626.065069] [cluster-256-hpc-256:88661:0]        mm_posix.c:291  UCX  ERROR shm_unlink(/ucx_shm_posix_34ea0a92) failed: No such file or directory
[1725067626.065473] [cluster-256-hpc-256:88661:0]        mm_posix.c:291  UCX  ERROR shm_unlink(/ucx_shm_posix_32697bfb) failed: No such file or directory
[1725067626.065074] [cluster-256-hpc-256:88771:0]        mm_posix.c:291  UCX  ERROR shm_unlink(/ucx_shm_posix_7240ce18) failed: No such file or directory
[1725067626.065480] [cluster-256-hpc-256:88771:0]        mm_posix.c:291  UCX  ERROR shm_unlink(/ucx_shm_posix_6e654358) failed: No such file or directory
[1725067626.064958] [cluster-256-hpc-256:88706:0]        mm_posix.c:291  UCX  ERROR shm_unlink(/ucx_shm_posix_30e5871d) failed: No such file or directory
[1725067626.065255] [cluster-256-hpc-256:88706:0]        mm_posix.c:291  UCX  ERROR shm_unlink(/ucx_shm_posix_4d8b41d3) failed: No such file or directory
[1725067626.065161] [cluster-256-hpc-256:88630:0]        mm_posix.c:291  UCX  ERROR shm_unlink(/ucx_shm_posix_31035d3d) failed: No such file or directory
[1725067626.065326] [cluster-256-hpc-256:88630:0]        mm_posix.c:291  UCX  ERROR shm_unlink(/ucx_shm_posix_7fbcb0a0) failed: No such file or directory
[1725067626.065063] [cluster-256-hpc-256:88879:0]        mm_posix.c:291  UCX  ERROR shm_unlink(/ucx_shm_posix_5b0de3c8) failed: No such file or directory
[1725067626.065354] [cluster-256-hpc-256:88879:0]        mm_posix.c:291  UCX  ERROR shm_unlink(/ucx_shm_posix_3fd4bf1c) failed: No such file or directory
[1725067626.065132] [cluster-256-hpc-256:88813:0]        mm_posix.c:291  UCX  ERROR shm_unlink(/ucx_shm_posix_7722bc8e) failed: No such file or directory
[1725067626.065324] [cluster-256-hpc-256:88813:0]        mm_posix.c:291  UCX  ERROR shm_unlink(/ucx_shm_posix_58369996) failed: No such file or directory
[1725067626.065076] [cluster-256-hpc-256:88956:0]        mm_posix.c:291  UCX  ERROR shm_unlink(/ucx_shm_posix_288e2b70) failed: No such file or directory
[1725067626.065380] [cluster-256-hpc-256:88956:0]        mm_posix.c:291  UCX  ERROR shm_unlink(/ucx_shm_posix_5c3d5068) failed: No such file or directory
[1725067626.064992] [cluster-256-hpc-256:88834:0]        mm_posix.c:291  UCX  ERROR shm_unlink(/ucx_shm_posix_2f90680b) failed: No such file or directory
[1725067626.065352] [cluster-256-hpc-256:88834:0]        mm_posix.c:291  UCX  ERROR shm_unlink(/ucx_shm_posix_2839e677) failed: No such file or directory
[1725067626.065458] [cluster-256-hpc-256:87850:0]        mm_posix.c:291  UCX  ERROR shm_unlink(/ucx_shm_posix_60165194) failed: No such file or directory
[1725067626.065321] [cluster-256-hpc-256:88138:0]        mm_posix.c:291  UCX  ERROR shm_unlink(/ucx_shm_posix_50845a16) failed: No such file or directory
[1725067626.065529] [cluster-256-hpc-256:88138:0]        mm_posix.c:291  UCX  ERROR shm_unlink(/ucx_shm_posix_1d4baf86) failed: No such file or directory
[1725067626.065243] [cluster-256-hpc-256:87971:0]        mm_posix.c:291  UCX  ERROR shm_unlink(/ucx_shm_posix_5f4f4408) failed: No such file or directory
[1725067626.065319] [cluster-256-hpc-256:88434:0]        mm_posix.c:291  UCX  ERROR shm_unlink(/ucx_shm_posix_10605465) failed: No such file or directory
[1725067626.065487] [cluster-256-hpc-256:88434:0]        mm_posix.c:291  UCX  ERROR shm_unlink(/ucx_shm_posix_1bf60512) failed: No such file or directory
[1725067626.065255] [cluster-256-hpc-256:88362:0]        mm_posix.c:291  UCX  ERROR shm_unlink(/ucx_shm_posix_25b74215) failed: No such file or directory
[1725067626.065382] [cluster-256-hpc-256:88362:0]        mm_posix.c:291  UCX  ERROR shm_unlink(/ucx_shm_posix_4141e83d) failed: No such file or directory
[1725067626.065375] [cluster-256-hpc-256:88779:0]        mm_posix.c:291  UCX  ERROR shm_unlink(/ucx_shm_posix_119a07d5) failed: No such file or directory
[1725067626.065583] [cluster-256-hpc-256:88779:0]        mm_posix.c:291  UCX  ERROR shm_unlink(/ucx_shm_posix_569b1bde) failed: No such file or directory
[1725067626.065387] [cluster-256-hpc-256:89209:0]        mm_posix.c:291  UCX  ERROR shm_unlink(/ucx_shm_posix_6e78fc3a) failed: No such file or directory
[1725067626.065268] [cluster-256-hpc-256:89306:0]        mm_posix.c:291  UCX  ERROR shm_unlink(/ucx_shm_posix_11e21908) failed: No such file or directory
[1725067626.065448] [cluster-256-hpc-256:89306:0]        mm_posix.c:291  UCX  ERROR shm_unlink(/ucx_shm_posix_313b816b) failed: No such file or directory
[1725067626.065275] [cluster-256-hpc-256:88958:0]        mm_posix.c:291  UCX  ERROR shm_unlink(/ucx_shm_posix_b1131e8) failed: No such file or directory
[1725067626.065347] [cluster-256-hpc-256:88958:0]        mm_posix.c:291  UCX  ERROR shm_unlink(/ucx_shm_posix_2cf0564c) failed: No such file or directory
[1725067626.065372] [cluster-256-hpc-256:88983:0]        mm_posix.c:291  UCX  ERROR shm_unlink(/ucx_shm_posix_56143eaf) failed: No such file or directory
[1725067626.065456] [cluster-256-hpc-256:89403:0]        mm_posix.c:291  UCX  ERROR shm_unlink(/ucx_shm_posix_1bd1ddc) failed: No such file or directory
[1725067626.065345] [cluster-256-hpc-256:89517:0]        mm_posix.c:291  UCX  ERROR shm_unlink(/ucx_shm_posix_1181f06) failed: No such file or directory
[1725067626.065494] [cluster-256-hpc-256:89517:0]        mm_posix.c:291  UCX  ERROR shm_unlink(/ucx_shm_posix_54263956) failed: No such file or directory
[1725067626.065362] [cluster-256-hpc-256:89669:0]        mm_posix.c:291  UCX  ERROR shm_unlink(/ucx_shm_posix_aa2fd93) failed: No such file or directory
[1725067626.065577] [cluster-256-hpc-256:89829:0]        mm_posix.c:291  UCX  ERROR shm_unlink(/ucx_shm_posix_abbbe89) failed: No such file or directory
[1725067626.065696] [cluster-256-hpc-256:89829:0]        mm_posix.c:291  UCX  ERROR shm_unlink(/ucx_shm_posix_30f02667) failed: No such file or directory
[1725067626.065316] [cluster-256-hpc-256:89668:0]        mm_posix.c:291  UCX  ERROR shm_unlink(/ucx_shm_posix_5707c505) failed: No such file or directory
[1725067626.069928] [cluster-256-hpc-256:88606:0]        mm_posix.c:291  UCX  ERROR shm_unlink(/ucx_shm_posix_79d735cf) failed: No such file or directory
[1725067626.069999] [cluster-256-hpc-256:88606:0]        mm_posix.c:291  UCX  ERROR shm_unlink(/ucx_shm_posix_30c4d1c3) failed: No such file or directory
[1725067626.149741] [cluster-256-hpc-256:90126:0]        mm_posix.c:291  UCX  ERROR shm_unlink(/ucx_shm_posix_1bb7413c) failed: No such file or directory
[1725067626.149704] [cluster-256-hpc-256:90183:0]        mm_posix.c:291  UCX  ERROR shm_unlink(/ucx_shm_posix_171da1fb) failed: No such file or directory
[1725067626.149783] [cluster-256-hpc-256:90183:0]        mm_posix.c:291  UCX  ERROR shm_unlink(/ucx_shm_posix_344d7d80) failed: No such file or directory
[1725067626.149818] [cluster-256-hpc-256:90126:0]        mm_posix.c:291  UCX  ERROR shm_unlink(/ucx_shm_posix_606ea914) failed: No such file or directory
[1725067626.149904] [cluster-256-hpc-256:90034:0]        mm_posix.c:291  UCX  ERROR shm_unlink(/ucx_shm_posix_ac7c499) failed: No such file or directory
[1725067626.149908] [cluster-256-hpc-256:90161:0]        mm_posix.c:291  UCX  ERROR shm_unlink(/ucx_shm_posix_5031655c) failed: No such file or directory
[1725067626.149991] [cluster-256-hpc-256:90034:0]        mm_posix.c:291  UCX  ERROR shm_unlink(/ucx_shm_posix_134b0995) failed: No such file or directory
[1725067626.149962] [cluster-256-hpc-256:90161:0]        mm_posix.c:291  UCX  ERROR shm_unlink(/ucx_shm_posix_23169b64) failed: No such file or directory
[1725067626.150214] [cluster-256-hpc-256:89820:0]        mm_posix.c:291  UCX  ERROR shm_unlink(/ucx_shm_posix_5ee1a34f) failed: No such file or directory
[1725067626.150308] [cluster-256-hpc-256:89820:0]        mm_posix.c:291  UCX  ERROR shm_unlink(/ucx_shm_posix_22b60211) failed: No such file or directory
[1725067626.150383] [cluster-256-hpc-256:89963:0]        mm_posix.c:291  UCX  ERROR shm_unlink(/ucx_shm_posix_5dec7898) failed: No such file or directory
[1725067626.150471] [cluster-256-hpc-256:89998:0]        mm_posix.c:291  UCX  ERROR shm_unlink(/ucx_shm_posix_5e99293c) failed: No such file or directory
[1725067626.150476] [cluster-256-hpc-256:89963:0]        mm_posix.c:291  UCX  ERROR shm_unlink(/ucx_shm_posix_170d8771) failed: No such file or directory
[1725067626.150532] [cluster-256-hpc-256:89907:0]        mm_posix.c:291  UCX  ERROR shm_unlink(/ucx_shm_posix_2568ee26) failed: No such file or directory
[1725067626.150565] [cluster-256-hpc-256:89998:0]        mm_posix.c:291  UCX  ERROR shm_unlink(/ucx_shm_posix_100fba9c) failed: No such file or directory
[1725067626.150629] [cluster-256-hpc-256:89907:0]        mm_posix.c:291  UCX  ERROR shm_unlink(/ucx_shm_posix_5ae2656c) failed: No such file or directory
[1725067626.150841] [cluster-256-hpc-256:90059:0]        mm_posix.c:291  UCX  ERROR shm_unlink(/ucx_shm_posix_3a629b03) failed: No such file or directory
[1725067626.150938] [cluster-256-hpc-256:90059:0]        mm_posix.c:291  UCX  ERROR shm_unlink(/ucx_shm_posix_54771217) failed: No such file or directory
[1725067626.151146] [cluster-256-hpc-256:90061:0]        mm_posix.c:291  UCX  ERROR shm_unlink(/ucx_shm_posix_3c5f5945) failed: No such file or directory
[1725067626.151249] [cluster-256-hpc-256:90061:0]        mm_posix.c:291  UCX  ERROR shm_unlink(/ucx_shm_posix_c6b0be4) failed: No such file or directory
[1725067626.151314] [cluster-256-hpc-256:88594:0]        mm_posix.c:291  UCX  ERROR shm_unlink(/ucx_shm_posix_572f9984) failed: No such file or directory
[1725067626.151393] [cluster-256-hpc-256:88594:0]        mm_posix.c:291  UCX  ERROR shm_unlink(/ucx_shm_posix_15ba4e5a) failed: No such file or directory
[1725067626.151422] [cluster-256-hpc-256:87608:0]        mm_posix.c:291  UCX  ERROR shm_unlink(/ucx_shm_posix_7d8b5ba3) failed: No such file or directory
[1725067626.151513] [cluster-256-hpc-256:87608:0]        mm_posix.c:291  UCX  ERROR shm_unlink(/ucx_shm_posix_7cc11b87) failed: No such file or directory
[1725067626.151391] [cluster-256-hpc-256:90124:0]        mm_posix.c:291  UCX  ERROR shm_unlink(/ucx_shm_posix_78cf08f) failed: No such file or directory
[1725067626.151485] [cluster-256-hpc-256:90124:0]        mm_posix.c:291  UCX  ERROR shm_unlink(/ucx_shm_posix_402d53e6) failed: No such file or directory
[1725067626.151530] [cluster-256-hpc-256:89894:0]        mm_posix.c:291  UCX  ERROR shm_unlink(/ucx_shm_posix_2fb484fb) failed: No such file or directory
[1725067626.151614] [cluster-256-hpc-256:89894:0]        mm_posix.c:291  UCX  ERROR shm_unlink(/ucx_shm_posix_21b20eb6) failed: No such file or directory
[1725067626.151801] [cluster-256-hpc-256:89924:0]        mm_posix.c:291  UCX  ERROR shm_unlink(/ucx_shm_posix_4f6a2308) failed: No such file or directory
[1725067626.151891] [cluster-256-hpc-256:89924:0]        mm_posix.c:291  UCX  ERROR shm_unlink(/ucx_shm_posix_2019406b) failed: No such file or directory
[1725067626.151973] [cluster-256-hpc-256:90030:0]        mm_posix.c:291  UCX  ERROR shm_unlink(/ucx_shm_posix_1788bd2a) failed: No such file or directory
[1725067626.152042] [cluster-256-hpc-256:90125:0]        mm_posix.c:291  UCX  ERROR shm_unlink(/ucx_shm_posix_7a725c2a) failed: No such file or directory
[1725067626.152001] [cluster-256-hpc-256:88567:0]        mm_posix.c:291  UCX  ERROR shm_unlink(/ucx_shm_posix_659578f6) failed: No such file or directory
[1725067626.152070] [cluster-256-hpc-256:90030:0]        mm_posix.c:291  UCX  ERROR shm_unlink(/ucx_shm_posix_3fec1f8d) failed: No such file or directory
[1725067626.152080] [cluster-256-hpc-256:88567:0]        mm_posix.c:291  UCX  ERROR shm_unlink(/ucx_shm_posix_788816ae) failed: No such file or directory
[1725067626.152154] [cluster-256-hpc-256:90085:0]        mm_posix.c:291  UCX  ERROR shm_unlink(/ucx_shm_posix_1c660c77) failed: No such file or directory
[1725067626.152135] [cluster-256-hpc-256:90125:0]        mm_posix.c:291  UCX  ERROR shm_unlink(/ucx_shm_posix_4161a6cf) failed: No such file or directory
[1725067626.152232] [cluster-256-hpc-256:90085:0]        mm_posix.c:291  UCX  ERROR shm_unlink(/ucx_shm_posix_c19d105) failed: No such file or directory
[1725067626.152348] [cluster-256-hpc-256:89571:0]        mm_posix.c:291  UCX  ERROR shm_unlink(/ucx_shm_posix_6044dd14) failed: No such file or directory
[1725067626.152427] [cluster-256-hpc-256:89571:0]        mm_posix.c:291  UCX  ERROR shm_unlink(/ucx_shm_posix_6bc93065) failed: No such file or directory
[1725067626.152481] [cluster-256-hpc-256:89471:0]        mm_posix.c:291  UCX  ERROR shm_unlink(/ucx_shm_posix_385b9b16) failed: No such file or directory
[1725067626.152484] [cluster-256-hpc-256:89764:0]        mm_posix.c:291  UCX  ERROR shm_unlink(/ucx_shm_posix_1392ea05) failed: No such file or directory
[1725067626.152552] [cluster-256-hpc-256:89764:0]        mm_posix.c:291  UCX  ERROR shm_unlink(/ucx_shm_posix_529e8a9b) failed: No such file or directory
[1725067626.152563] [cluster-256-hpc-256:89471:0]        mm_posix.c:291  UCX  ERROR shm_unlink(/ucx_shm_posix_3e34a3b1) failed: No such file or directory
[1725067626.152575] [cluster-256-hpc-256:87843:0]        mm_posix.c:291  UCX  ERROR shm_unlink(/ucx_shm_posix_6ae8c79c) failed: No such file or directory
[1725067626.152674] [cluster-256-hpc-256:87843:0]        mm_posix.c:291  UCX  ERROR shm_unlink(/ucx_shm_posix_6fd115c5) failed: No such file or directory
[1725067626.152622] [cluster-256-hpc-256:88820:0]        mm_posix.c:291  UCX  ERROR shm_unlink(/ucx_shm_posix_4b368676) failed: No such file or directory
[1725067626.152720] [cluster-256-hpc-256:87967:0]        mm_posix.c:291  UCX  ERROR shm_unlink(/ucx_shm_posix_709f0bc6) failed: No such file or directory
[1725067626.152666] [cluster-256-hpc-256:88913:0]        mm_posix.c:291  UCX  ERROR shm_unlink(/ucx_shm_posix_61ecea30) failed: No such file or directory
[1725067626.152757] [cluster-256-hpc-256:88913:0]        mm_posix.c:291  UCX  ERROR shm_unlink(/ucx_shm_posix_3bc86315) failed: No such file or directory
[1725067626.152729] [cluster-256-hpc-256:88976:0]        mm_posix.c:291  UCX  ERROR shm_unlink(/ucx_shm_posix_3adb4673) failed: No such file or directory
[1725067626.152797] [cluster-256-hpc-256:88976:0]        mm_posix.c:291  UCX  ERROR shm_unlink(/ucx_shm_posix_49c41eca) failed: No such file or directory
[1725067626.152696] [cluster-256-hpc-256:88820:0]        mm_posix.c:291  UCX  ERROR shm_unlink(/ucx_shm_posix_6614d1a3) failed: No such file or directory
[1725067626.152660] [cluster-256-hpc-256:88823:0]        mm_posix.c:291  UCX  ERROR shm_unlink(/ucx_shm_posix_6a8d229a) failed: No such file or directory
[1725067626.152761] [cluster-256-hpc-256:88823:0]        mm_posix.c:291  UCX  ERROR shm_unlink(/ucx_shm_posix_547b4657) failed: No such file or directory
[1725067626.152866] [cluster-256-hpc-256:88032:0]        mm_posix.c:291  UCX  ERROR shm_unlink(/ucx_shm_posix_bb78bd2) failed: No such file or directory
[1725067626.152937] [cluster-256-hpc-256:88032:0]        mm_posix.c:291  UCX  ERROR shm_unlink(/ucx_shm_posix_40dcfdb) failed: No such file or directory
[1725067626.152713] [cluster-256-hpc-256:87836:0]        mm_posix.c:291  UCX  ERROR shm_unlink(/ucx_shm_posix_3fb86850) failed: No such file or directory
[1725067626.152790] [cluster-256-hpc-256:87836:0]        mm_posix.c:291  UCX  ERROR shm_unlink(/ucx_shm_posix_52c42e8d) failed: No such file or directory
[1725067626.152862] [cluster-256-hpc-256:88108:0]        mm_posix.c:291  UCX  ERROR shm_unlink(/ucx_shm_posix_423c8f60) failed: No such file or directory
[1725067626.152931] [cluster-256-hpc-256:88108:0]        mm_posix.c:291  UCX  ERROR shm_unlink(/ucx_shm_posix_51431d14) failed: No such file or directory
[1725067626.152761] [cluster-256-hpc-256:87971:0]        mm_posix.c:291  UCX  ERROR shm_unlink(/ucx_shm_posix_b4c70ae) failed: No such file or directory
[1725067626.152870] [cluster-256-hpc-256:87971:0]        mm_posix.c:291  UCX  ERROR shm_unlink(/ucx_shm_posix_4f9ab7ef) failed: No such file or directory
[1725067626.152853] [cluster-256-hpc-256:88149:0]        mm_posix.c:291  UCX  ERROR shm_unlink(/ucx_shm_posix_1d9ea1bf) failed: No such file or directory
[1725067626.152921] [cluster-256-hpc-256:88149:0]        mm_posix.c:291  UCX  ERROR shm_unlink(/ucx_shm_posix_54369155) failed: No such file or directory
[1725067626.152870] [cluster-256-hpc-256:89514:0]        mm_posix.c:291  UCX  ERROR shm_unlink(/ucx_shm_posix_1868537d) failed: No such file or directory
[1725067626.152943] [cluster-256-hpc-256:89514:0]        mm_posix.c:291  UCX  ERROR shm_unlink(/ucx_shm_posix_2af9bd1) failed: No such file or directory
[1725067626.152942] [cluster-256-hpc-256:88706:0]        mm_posix.c:291  UCX  ERROR shm_unlink(/ucx_shm_posix_68abcdcd) failed: No such file or directory
[1725067626.153027] [cluster-256-hpc-256:88706:0]        mm_posix.c:291  UCX  ERROR shm_unlink(/ucx_shm_posix_20e58ea) failed: No such file or directory
[1725067626.152828] [cluster-256-hpc-256:88716:0]        mm_posix.c:291  UCX  ERROR shm_unlink(/ucx_shm_posix_b562218) failed: No such file or directory
[1725067626.152900] [cluster-256-hpc-256:88716:0]        mm_posix.c:291  UCX  ERROR shm_unlink(/ucx_shm_posix_8519534) failed: No such file or directory
[1725067626.152950] [cluster-256-hpc-256:88630:0]        mm_posix.c:291  UCX  ERROR shm_unlink(/ucx_shm_posix_7e724dfb) failed: No such file or directory
[1725067626.153015] [cluster-256-hpc-256:88630:0]        mm_posix.c:291  UCX  ERROR shm_unlink(/ucx_shm_posix_554cb48d) failed: No such file or directory
[1725067626.152822] [cluster-256-hpc-256:87967:0]        mm_posix.c:291  UCX  ERROR shm_unlink(/ucx_shm_posix_26f828e1) failed: No such file or directory
[1725067626.152896] [cluster-256-hpc-256:88156:0]        mm_posix.c:291  UCX  ERROR shm_unlink(/ucx_shm_posix_5138d4c8) failed: No such file or directory
[1725067626.152962] [cluster-256-hpc-256:88156:0]        mm_posix.c:291  UCX  ERROR shm_unlink(/ucx_shm_posix_4d744d5a) failed: No such file or directory
[1725067626.152818] [cluster-256-hpc-256:88944:0]        mm_posix.c:291  UCX  ERROR shm_unlink(/ucx_shm_posix_6e5e4235) failed: No such file or directory
[1725067626.152919] [cluster-256-hpc-256:88944:0]        mm_posix.c:291  UCX  ERROR shm_unlink(/ucx_shm_posix_36a1bdff) failed: No such file or directory
[1725067626.152807] [cluster-256-hpc-256:89212:0]        mm_posix.c:291  UCX  ERROR shm_unlink(/ucx_shm_posix_1c65d86c) failed: No such file or directory
[1725067626.152869] [cluster-256-hpc-256:89212:0]        mm_posix.c:291  UCX  ERROR shm_unlink(/ucx_shm_posix_777d82fe) failed: No such file or directory
[1725067626.152904] [cluster-256-hpc-256:88958:0]        mm_posix.c:291  UCX  ERROR shm_unlink(/ucx_shm_posix_28f4506a) failed: No such file or directory
[1725067626.152964] [cluster-256-hpc-256:88958:0]        mm_posix.c:291  UCX  ERROR shm_unlink(/ucx_shm_posix_100bbbef) failed: No such file or directory
[1725067626.152789] [cluster-256-hpc-256:89335:0]        mm_posix.c:291  UCX  ERROR shm_unlink(/ucx_shm_posix_36825e29) failed: No such file or directory
[1725067626.152906] [cluster-256-hpc-256:89335:0]        mm_posix.c:291  UCX  ERROR shm_unlink(/ucx_shm_posix_1ef93e35) failed: No such file or directory
[1725067626.152968] [cluster-256-hpc-256:88895:0]        mm_posix.c:291  UCX  ERROR shm_unlink(/ucx_shm_posix_252a5d8b) failed: No such file or directory
[1725067626.153026] [cluster-256-hpc-256:88895:0]        mm_posix.c:291  UCX  ERROR shm_unlink(/ucx_shm_posix_4a8cad9a) failed: No such file or directory
[1725067626.152925] [cluster-256-hpc-256:89299:0]        mm_posix.c:291  UCX  ERROR shm_unlink(/ucx_shm_posix_5739ef2c) failed: No such file or directory
[1725067626.152996] [cluster-256-hpc-256:89299:0]        mm_posix.c:291  UCX  ERROR shm_unlink(/ucx_shm_posix_7771a0f) failed: No such file or directory
[1725067626.152847] [cluster-256-hpc-256:89669:0]        mm_posix.c:291  UCX  ERROR shm_unlink(/ucx_shm_posix_1476ca59) failed: No such file or directory
[1725067626.152953] [cluster-256-hpc-256:89669:0]        mm_posix.c:291  UCX  ERROR shm_unlink(/ucx_shm_posix_76a5f03f) failed: No such file or directory
[1725067626.152900] [cluster-256-hpc-256:89822:0]        mm_posix.c:291  UCX  ERROR shm_unlink(/ucx_shm_posix_39dda9f8) failed: No such file or directory
[1725067626.152960] [cluster-256-hpc-256:89822:0]        mm_posix.c:291  UCX  ERROR shm_unlink(/ucx_shm_posix_4fc4a4cd) failed: No such file or directory
[1725067626.152738] [cluster-256-hpc-256:89585:0]        mm_posix.c:291  UCX  ERROR shm_unlink(/ucx_shm_posix_608b6d66) failed: No such file or directory
[1725067626.152811] [cluster-256-hpc-256:89585:0]        mm_posix.c:291  UCX  ERROR shm_unlink(/ucx_shm_posix_5ff74354) failed: No such file or directory
[1725067626.152755] [cluster-256-hpc-256:87605:0]        mm_posix.c:291  UCX  ERROR shm_unlink(/ucx_shm_posix_49652cc6) failed: No such file or directory
[1725067626.152847] [cluster-256-hpc-256:87605:0]        mm_posix.c:291  UCX  ERROR shm_unlink(/ucx_shm_posix_5a8c125b) failed: No such file or directory
[1725067626.152856] [cluster-256-hpc-256:87607:0]        mm_posix.c:291  UCX  ERROR shm_unlink(/ucx_shm_posix_42c02e82) failed: No such file or directory
[1725067626.152916] [cluster-256-hpc-256:87607:0]        mm_posix.c:291  UCX  ERROR shm_unlink(/ucx_shm_posix_75b54723) failed: No such file or directory
[1725067626.152711] [cluster-256-hpc-256:87807:0]        mm_posix.c:291  UCX  ERROR shm_unlink(/ucx_shm_posix_1c0583be) failed: No such file or directory
[1725067626.152812] [cluster-256-hpc-256:87807:0]        mm_posix.c:291  UCX  ERROR shm_unlink(/ucx_shm_posix_c71fb47) failed: No such file or directory
[1725067626.152936] [cluster-256-hpc-256:88075:0]        mm_posix.c:291  UCX  ERROR shm_unlink(/ucx_shm_posix_37fc536e) failed: No such file or directory
[1725067626.153001] [cluster-256-hpc-256:88075:0]        mm_posix.c:291  UCX  ERROR shm_unlink(/ucx_shm_posix_792f363f) failed: No such file or directory
[1725067626.153080] [cluster-256-hpc-256:88143:0]        mm_posix.c:291  UCX  ERROR shm_unlink(/ucx_shm_posix_73c2572b) failed: No such file or directory
[1725067626.153160] [cluster-256-hpc-256:88143:0]        mm_posix.c:291  UCX  ERROR shm_unlink(/ucx_shm_posix_25d3e629) failed: No such file or directory
[1725067626.152948] [cluster-256-hpc-256:88386:0]        mm_posix.c:291  UCX  ERROR shm_unlink(/ucx_shm_posix_30d31edf) failed: No such file or directory
[1725067626.153024] [cluster-256-hpc-256:88386:0]        mm_posix.c:291  UCX  ERROR shm_unlink(/ucx_shm_posix_2397f1c1) failed: No such file or directory
[1725067626.153130] [cluster-256-hpc-256:88391:0]        mm_posix.c:291  UCX  ERROR shm_unlink(/ucx_shm_posix_117f44f8) failed: No such file or directory
[1725067626.153139] [cluster-256-hpc-256:89668:0]        mm_posix.c:291  UCX  ERROR shm_unlink(/ucx_shm_posix_712ab6c1) failed: No such file or directory
[1725067626.153196] [cluster-256-hpc-256:89668:0]        mm_posix.c:291  UCX  ERROR shm_unlink(/ucx_shm_posix_43fb1fb) failed: No such file or directory
[1725067626.153170] [cluster-256-hpc-256:88879:0]        mm_posix.c:291  UCX  ERROR shm_unlink(/ucx_shm_posix_1ba2ef4c) failed: No such file or directory
[1725067626.153231] [cluster-256-hpc-256:88879:0]        mm_posix.c:291  UCX  ERROR shm_unlink(/ucx_shm_posix_61660845) failed: No such file or directory
[1725067626.153196] [cluster-256-hpc-256:88813:0]        mm_posix.c:291  UCX  ERROR shm_unlink(/ucx_shm_posix_203da5c2) failed: No such file or directory
[1725067626.153306] [cluster-256-hpc-256:88813:0]        mm_posix.c:291  UCX  ERROR shm_unlink(/ucx_shm_posix_3e3e98f0) failed: No such file or directory
[1725067626.153076] [cluster-256-hpc-256:88956:0]        mm_posix.c:291  UCX  ERROR shm_unlink(/ucx_shm_posix_7426ec66) failed: No such file or directory
[1725067626.153164] [cluster-256-hpc-256:88956:0]        mm_posix.c:291  UCX  ERROR shm_unlink(/ucx_shm_posix_50b38806) failed: No such file or directory
[1725067626.153266] [cluster-256-hpc-256:88461:0]        mm_posix.c:291  UCX  ERROR shm_unlink(/ucx_shm_posix_4f0228c7) failed: No such file or directory
[1725067626.153185] [cluster-256-hpc-256:89209:0]        mm_posix.c:291  UCX  ERROR shm_unlink(/ucx_shm_posix_1e145c5c) failed: No such file or directory
[1725067626.153256] [cluster-256-hpc-256:89209:0]        mm_posix.c:291  UCX  ERROR shm_unlink(/ucx_shm_posix_146b69a2) failed: No such file or directory
[1725067626.153235] [cluster-256-hpc-256:88983:0]        mm_posix.c:291  UCX  ERROR shm_unlink(/ucx_shm_posix_dfe436f) failed: No such file or directory
[1725067626.153313] [cluster-256-hpc-256:88983:0]        mm_posix.c:291  UCX  ERROR shm_unlink(/ucx_shm_posix_3952b026) failed: No such file or directory
[1725067626.153204] [cluster-256-hpc-256:89162:0]        mm_posix.c:291  UCX  ERROR shm_unlink(/ucx_shm_posix_65a00fcd) failed: No such file or directory
[1725067626.153296] [cluster-256-hpc-256:89162:0]        mm_posix.c:291  UCX  ERROR shm_unlink(/ucx_shm_posix_7b042964) failed: No such file or directory
[1725067626.153053] [cluster-256-hpc-256:88505:0]        mm_posix.c:291  UCX  ERROR shm_unlink(/ucx_shm_posix_5b93c5) failed: No such file or directory
[1725067626.152995] [cluster-256-hpc-256:89210:0]        mm_posix.c:291  UCX  ERROR shm_unlink(/ucx_shm_posix_7eb89a) failed: No such file or directory
[1725067626.153055] [cluster-256-hpc-256:89210:0]        mm_posix.c:291  UCX  ERROR shm_unlink(/ucx_shm_posix_394dea6b) failed: No such file or directory
[1725067626.153000] [cluster-256-hpc-256:89300:0]        mm_posix.c:291  UCX  ERROR shm_unlink(/ucx_shm_posix_5ba63b18) failed: No such file or directory
[1725067626.153101] [cluster-256-hpc-256:89300:0]        mm_posix.c:291  UCX  ERROR shm_unlink(/ucx_shm_posix_307aa3e3) failed: No such file or directory
[1725067626.153083] [cluster-256-hpc-256:89393:0]        mm_posix.c:291  UCX  ERROR shm_unlink(/ucx_shm_posix_4c4f9fef) failed: No such file or directory
[1725067626.153146] [cluster-256-hpc-256:89393:0]        mm_posix.c:291  UCX  ERROR shm_unlink(/ucx_shm_posix_5bc260c6) failed: No such file or directory
[1725067626.153060] [cluster-256-hpc-256:89394:0]        mm_posix.c:291  UCX  ERROR shm_unlink(/ucx_shm_posix_5cd6febf) failed: No such file or directory
[1725067626.153109] [cluster-256-hpc-256:89394:0]        mm_posix.c:291  UCX  ERROR shm_unlink(/ucx_shm_posix_26ff5b31) failed: No such file or directory
[1725067626.153237] [cluster-256-hpc-256:89942:0]        mm_posix.c:291  UCX  ERROR shm_unlink(/ucx_shm_posix_6484dfbf) failed: No such file or directory
[1725067626.153320] [cluster-256-hpc-256:89942:0]        mm_posix.c:291  UCX  ERROR shm_unlink(/ucx_shm_posix_3d6bb5e4) failed: No such file or directory
[1725067626.152862] [cluster-256-hpc-256:89702:0]        mm_posix.c:291  UCX  ERROR shm_unlink(/ucx_shm_posix_f781524) failed: No such file or directory
[1725067626.152954] [cluster-256-hpc-256:89702:0]        mm_posix.c:291  UCX  ERROR shm_unlink(/ucx_shm_posix_2ad713d5) failed: No such file or directory
[1725067626.152930] [cluster-256-hpc-256:89679:0]        mm_posix.c:291  UCX  ERROR shm_unlink(/ucx_shm_posix_2c267622) failed: No such file or directory
[1725067626.153013] [cluster-256-hpc-256:89679:0]        mm_posix.c:291  UCX  ERROR shm_unlink(/ucx_shm_posix_4330a5e5) failed: No such file or directory
[1725067626.152914] [cluster-256-hpc-256:87960:0]        mm_posix.c:291  UCX  ERROR shm_unlink(/ucx_shm_posix_55677822) failed: No such file or directory
[1725067626.152988] [cluster-256-hpc-256:87960:0]        mm_posix.c:291  UCX  ERROR shm_unlink(/ucx_shm_posix_4e3ee43a) failed: No such file or directory
[1725067626.153192] [cluster-256-hpc-256:87606:0]        mm_posix.c:291  UCX  ERROR shm_unlink(/ucx_shm_posix_1c614072) failed: No such file or directory
[1725067626.153251] [cluster-256-hpc-256:87606:0]        mm_posix.c:291  UCX  ERROR shm_unlink(/ucx_shm_posix_73ccd712) failed: No such file or directory
[1725067626.153078] [cluster-256-hpc-256:87890:0]        mm_posix.c:291  UCX  ERROR shm_unlink(/ucx_shm_posix_58bfa5e2) failed: No such file or directory
[1725067626.153162] [cluster-256-hpc-256:87890:0]        mm_posix.c:291  UCX  ERROR shm_unlink(/ucx_shm_posix_495aefe6) failed: No such file or directory
[1725067626.153227] [cluster-256-hpc-256:88059:0]        mm_posix.c:291  UCX  ERROR shm_unlink(/ucx_shm_posix_67aac54b) failed: No such file or directory
[1725067626.153309] [cluster-256-hpc-256:88059:0]        mm_posix.c:291  UCX  ERROR shm_unlink(/ucx_shm_posix_67f9a450) failed: No such file or directory
[1725067626.153058] [cluster-256-hpc-256:88047:0]        mm_posix.c:291  UCX  ERROR shm_unlink(/ucx_shm_posix_501af58a) failed: No such file or directory
[1725067626.153136] [cluster-256-hpc-256:88047:0]        mm_posix.c:291  UCX  ERROR shm_unlink(/ucx_shm_posix_16b11798) failed: No such file or directory
[1725067626.153339] [cluster-256-hpc-256:88834:0]        mm_posix.c:291  UCX  ERROR shm_unlink(/ucx_shm_posix_5a31781e) failed: No such file or directory
[1725067626.153405] [cluster-256-hpc-256:88834:0]        mm_posix.c:291  UCX  ERROR shm_unlink(/ucx_shm_posix_68e133df) failed: No such file or directory
[1725067626.153344] [cluster-256-hpc-256:87961:0]        mm_posix.c:291  UCX  ERROR shm_unlink(/ucx_shm_posix_25d3bf20) failed: No such file or directory
[1725067626.153414] [cluster-256-hpc-256:87961:0]        mm_posix.c:291  UCX  ERROR shm_unlink(/ucx_shm_posix_1ad4489d) failed: No such file or directory
[1725067626.153564] [cluster-256-hpc-256:87850:0]        mm_posix.c:291  UCX  ERROR shm_unlink(/ucx_shm_posix_6be307b9) failed: No such file or directory
[1725067626.153622] [cluster-256-hpc-256:87850:0]        mm_posix.c:291  UCX  ERROR shm_unlink(/ucx_shm_posix_2ae5efdf) failed: No such file or directory
[1725067626.153312] [cluster-256-hpc-256:88102:0]        mm_posix.c:291  UCX  ERROR shm_unlink(/ucx_shm_posix_1e9ef0cb) failed: No such file or directory
[1725067626.153384] [cluster-256-hpc-256:88102:0]        mm_posix.c:291  UCX  ERROR shm_unlink(/ucx_shm_posix_24112773) failed: No such file or directory
[1725067626.153305] [cluster-256-hpc-256:88189:0]        mm_posix.c:291  UCX  ERROR shm_unlink(/ucx_shm_posix_20cb4211) failed: No such file or directory
[1725067626.153389] [cluster-256-hpc-256:88189:0]        mm_posix.c:291  UCX  ERROR shm_unlink(/ucx_shm_posix_4a74925) failed: No such file or directory
[1725067626.153551] [cluster-256-hpc-256:88553:0]        mm_posix.c:291  UCX  ERROR shm_unlink(/ucx_shm_posix_31e741de) failed: No such file or directory
[1725067626.153350] [cluster-256-hpc-256:88484:0]        mm_posix.c:291  UCX  ERROR shm_unlink(/ucx_shm_posix_29124168) failed: No such file or directory
[1725067626.153488] [cluster-256-hpc-256:88661:0]        mm_posix.c:291  UCX  ERROR shm_unlink(/ucx_shm_posix_33838633) failed: No such file or directory
[1725067626.153572] [cluster-256-hpc-256:88661:0]        mm_posix.c:291  UCX  ERROR shm_unlink(/ucx_shm_posix_740ae6d9) failed: No such file or directory
[1725067626.153422] [cluster-256-hpc-256:88771:0]        mm_posix.c:291  UCX  ERROR shm_unlink(/ucx_shm_posix_250da074) failed: No such file or directory
[1725067626.153476] [cluster-256-hpc-256:88771:0]        mm_posix.c:291  UCX  ERROR shm_unlink(/ucx_shm_posix_3d33fde4) failed: No such file or directory
[1725067626.153476] [cluster-256-hpc-256:88362:0]        mm_posix.c:291  UCX  ERROR shm_unlink(/ucx_shm_posix_59019ddc) failed: No such file or directory
[1725067626.153342] [cluster-256-hpc-256:88779:0]        mm_posix.c:291  UCX  ERROR shm_unlink(/ucx_shm_posix_47ace62b) failed: No such file or directory
[1725067626.153409] [cluster-256-hpc-256:88779:0]        mm_posix.c:291  UCX  ERROR shm_unlink(/ucx_shm_posix_5c57dab) failed: No such file or directory
[1725067626.153382] [cluster-256-hpc-256:89403:0]        mm_posix.c:291  UCX  ERROR shm_unlink(/ucx_shm_posix_1be8573c) failed: No such file or directory
[1725067626.153449] [cluster-256-hpc-256:89403:0]        mm_posix.c:291  UCX  ERROR shm_unlink(/ucx_shm_posix_22cb5aa) failed: No such file or directory
[1725067626.153493] [cluster-256-hpc-256:89517:0]        mm_posix.c:291  UCX  ERROR shm_unlink(/ucx_shm_posix_5c306adc) failed: No such file or directory
[1725067626.153564] [cluster-256-hpc-256:89517:0]        mm_posix.c:291  UCX  ERROR shm_unlink(/ucx_shm_posix_61e16fff) failed: No such file or directory
[1725067626.153408] [cluster-256-hpc-256:89765:0]        mm_posix.c:291  UCX  ERROR shm_unlink(/ucx_shm_posix_201daa7b) failed: No such file or directory
[1725067626.153462] [cluster-256-hpc-256:89765:0]        mm_posix.c:291  UCX  ERROR shm_unlink(/ucx_shm_posix_6de21adf) failed: No such file or directory
[1725067626.153317] [cluster-256-hpc-256:89460:0]        mm_posix.c:291  UCX  ERROR shm_unlink(/ucx_shm_posix_54f6934f) failed: No such file or directory
[1725067626.153390] [cluster-256-hpc-256:89460:0]        mm_posix.c:291  UCX  ERROR shm_unlink(/ucx_shm_posix_6a391b3b) failed: No such file or directory
[1725067626.153404] [cluster-256-hpc-256:89570:0]        mm_posix.c:291  UCX  ERROR shm_unlink(/ucx_shm_posix_64bccd8b) failed: No such file or directory
[1725067626.153381] [cluster-256-hpc-256:88606:0]        mm_posix.c:291  UCX  ERROR shm_unlink(/ucx_shm_posix_181cc84b) failed: No such file or directory
[1725067626.153443] [cluster-256-hpc-256:88606:0]        mm_posix.c:291  UCX  ERROR shm_unlink(/ucx_shm_posix_24ec1bc4) failed: No such file or directory
[1725067626.153681] [cluster-256-hpc-256:88138:0]        mm_posix.c:291  UCX  ERROR shm_unlink(/ucx_shm_posix_36cc75e5) failed: No such file or directory
[1725067626.153735] [cluster-256-hpc-256:88138:0]        mm_posix.c:291  UCX  ERROR shm_unlink(/ucx_shm_posix_35cfd835) failed: No such file or directory
[1725067626.153617] [cluster-256-hpc-256:88434:0]        mm_posix.c:291  UCX  ERROR shm_unlink(/ucx_shm_posix_68db8aad) failed: No such file or directory
[1725067626.153689] [cluster-256-hpc-256:88434:0]        mm_posix.c:291  UCX  ERROR shm_unlink(/ucx_shm_posix_49b67f6d) failed: No such file or directory
[1725067626.153613] [cluster-256-hpc-256:89306:0]        mm_posix.c:291  UCX  ERROR shm_unlink(/ucx_shm_posix_635a776e) failed: No such file or directory
[1725067626.153678] [cluster-256-hpc-256:89306:0]        mm_posix.c:291  UCX  ERROR shm_unlink(/ucx_shm_posix_11cff67a) failed: No such file or directory
[1725067626.154037] [cluster-256-hpc-256:88505:0]        mm_posix.c:291  UCX  ERROR shm_unlink(/ucx_shm_posix_31f57bc) failed: No such file or directory
[1725067626.154033] [cluster-256-hpc-256:89829:0]        mm_posix.c:291  UCX  ERROR shm_unlink(/ucx_shm_posix_6131b670) failed: No such file or directory
[1725067626.154081] [cluster-256-hpc-256:88505:0]        mm_posix.c:291  UCX  ERROR shm_unlink(/ucx_shm_posix_298f3f4c) failed: No such file or directory
[1725067626.154128] [cluster-256-hpc-256:88391:0]        mm_posix.c:291  UCX  ERROR shm_unlink(/ucx_shm_posix_2805cd08) failed: No such file or directory
[1725067626.154198] [cluster-256-hpc-256:88391:0]        mm_posix.c:291  UCX  ERROR shm_unlink(/ucx_shm_posix_24082503) failed: No such file or directory
[1725067626.154192] [cluster-256-hpc-256:88461:0]        mm_posix.c:291  UCX  ERROR shm_unlink(/ucx_shm_posix_6712d6e2) failed: No such file or directory
[1725067626.154239] [cluster-256-hpc-256:88461:0]        mm_posix.c:291  UCX  ERROR shm_unlink(/ucx_shm_posix_1e5f7da0) failed: No such file or directory
[1725067626.154454] [cluster-256-hpc-256:89570:0]        mm_posix.c:291  UCX  ERROR shm_unlink(/ucx_shm_posix_2de47bc7) failed: No such file or directory
[1725067626.154429] [cluster-256-hpc-256:88484:0]        mm_posix.c:291  UCX  ERROR shm_unlink(/ucx_shm_posix_2db21468) failed: No such file or directory
[1725067626.154490] [cluster-256-hpc-256:88484:0]        mm_posix.c:291  UCX  ERROR shm_unlink(/ucx_shm_posix_4bfa9281) failed: No such file or directory
[1725067626.154446] [cluster-256-hpc-256:88362:0]        mm_posix.c:291  UCX  ERROR shm_unlink(/ucx_shm_posix_75dae38f) failed: No such file or directory
[1725067626.154501] [cluster-256-hpc-256:88362:0]        mm_posix.c:291  UCX  ERROR shm_unlink(/ucx_shm_posix_4f35a8f3) failed: No such file or directory
[1725067626.154488] [cluster-256-hpc-256:88553:0]        mm_posix.c:291  UCX  ERROR shm_unlink(/ucx_shm_posix_7fddb463) failed: No such file or directory
[1725067626.154503] [cluster-256-hpc-256:89570:0]        mm_posix.c:291  UCX  ERROR shm_unlink(/ucx_shm_posix_c93143) failed: No such file or directory
[1725067626.155467] [cluster-256-hpc-256:88553:0]        mm_posix.c:291  UCX  ERROR shm_unlink(/ucx_shm_posix_5c46463f) failed: No such file or directory
[1725067626.155515] [cluster-256-hpc-256:88553:0]        mm_posix.c:291  UCX  ERROR shm_unlink(/ucx_shm_posix_29c20e99) failed: No such file or directory
[1725067626.155551] [cluster-256-hpc-256:89829:0]        mm_posix.c:291  UCX  ERROR shm_unlink(/ucx_shm_posix_56b633db) failed: No such file or directory
[1725067626.155632] [cluster-256-hpc-256:89829:0]        mm_posix.c:291  UCX  ERROR shm_unlink(/ucx_shm_posix_6b892563) failed: No such file or directory
[1725067626.196797] [cluster-256-hpc-256:90183:0]        mm_posix.c:291  UCX  ERROR shm_unlink(/ucx_shm_posix_2904e79e) failed: No such file or directory
[1725067626.196851] [cluster-256-hpc-256:90183:0]        mm_posix.c:291  UCX  ERROR shm_unlink(/ucx_shm_posix_19ad0e9e) failed: No such file or directory
[1725067626.198762] [cluster-256-hpc-256:90161:0]        mm_posix.c:291  UCX  ERROR shm_unlink(/ucx_shm_posix_356334f5) failed: No such file or directory
[1725067626.198822] [cluster-256-hpc-256:90161:0]        mm_posix.c:291  UCX  ERROR shm_unlink(/ucx_shm_posix_65063f0a) failed: No such file or directory
[1725067626.198723] [cluster-256-hpc-256:89820:0]        mm_posix.c:291  UCX  ERROR shm_unlink(/ucx_shm_posix_7fc0ea1a) failed: No such file or directory
[1725067626.198773] [cluster-256-hpc-256:89820:0]        mm_posix.c:291  UCX  ERROR shm_unlink(/ucx_shm_posix_694cf081) failed: No such file or directory
[1725067626.199242] [cluster-256-hpc-256:90034:0]        mm_posix.c:291  UCX  ERROR shm_unlink(/ucx_shm_posix_25a4fa18) failed: No such file or directory
[1725067626.199290] [cluster-256-hpc-256:90034:0]        mm_posix.c:291  UCX  ERROR shm_unlink(/ucx_shm_posix_36c88ce4) failed: No such file or directory
[1725067626.200268] [cluster-256-hpc-256:89963:0]        mm_posix.c:291  UCX  ERROR shm_unlink(/ucx_shm_posix_369b09fb) failed: No such file or directory
[1725067626.200317] [cluster-256-hpc-256:89963:0]        mm_posix.c:291  UCX  ERROR shm_unlink(/ucx_shm_posix_2273e81c) failed: No such file or directory
[1725067626.201235] [cluster-256-hpc-256:89907:0]        mm_posix.c:291  UCX  ERROR shm_unlink(/ucx_shm_posix_7057d45d) failed: No such file or directory
[1725067626.201292] [cluster-256-hpc-256:89907:0]        mm_posix.c:291  UCX  ERROR shm_unlink(/ucx_shm_posix_496c4f67) failed: No such file or directory
[1725067626.202524] [cluster-256-hpc-256:90059:0]        mm_posix.c:291  UCX  ERROR shm_unlink(/ucx_shm_posix_1d6da6e2) failed: No such file or directory
[1725067626.202573] [cluster-256-hpc-256:90059:0]        mm_posix.c:291  UCX  ERROR shm_unlink(/ucx_shm_posix_6268451d) failed: No such file or directory
[1725067626.202760] [cluster-256-hpc-256:90061:0]        mm_posix.c:291  UCX  ERROR shm_unlink(/ucx_shm_posix_219cea5) failed: No such file or directory
[1725067626.202808] [cluster-256-hpc-256:90061:0]        mm_posix.c:291  UCX  ERROR shm_unlink(/ucx_shm_posix_3d6cae12) failed: No such file or directory
[1725067626.202970] [cluster-256-hpc-256:89998:0]        mm_posix.c:291  UCX  ERROR shm_unlink(/ucx_shm_posix_388d2ac9) failed: No such file or directory
[1725067626.203025] [cluster-256-hpc-256:89998:0]        mm_posix.c:291  UCX  ERROR shm_unlink(/ucx_shm_posix_27d806fe) failed: No such file or directory
[1725067626.203497] [cluster-256-hpc-256:90126:0]        mm_posix.c:291  UCX  ERROR shm_unlink(/ucx_shm_posix_6eaa6e9b) failed: No such file or directory
[1725067626.203551] [cluster-256-hpc-256:90126:0]        mm_posix.c:291  UCX  ERROR shm_unlink(/ucx_shm_posix_6fd66c83) failed: No such file or directory
[1725067626.204132] [cluster-256-hpc-256:88594:0]        mm_posix.c:291  UCX  ERROR shm_unlink(/ucx_shm_posix_6ecaef52) failed: No such file or directory
[1725067626.204181] [cluster-256-hpc-256:88594:0]        mm_posix.c:291  UCX  ERROR shm_unlink(/ucx_shm_posix_77bc3d5a) failed: No such file or directory
[1725067626.205813] [cluster-256-hpc-256:90124:0]        mm_posix.c:291  UCX  ERROR shm_unlink(/ucx_shm_posix_73187c75) failed: No such file or directory
[1725067626.205865] [cluster-256-hpc-256:90124:0]        mm_posix.c:291  UCX  ERROR shm_unlink(/ucx_shm_posix_2e19024f) failed: No such file or directory
[1725067626.205780] [cluster-256-hpc-256:87608:0]        mm_posix.c:291  UCX  ERROR shm_unlink(/ucx_shm_posix_31e4fdab) failed: No such file or directory
[1725067626.205832] [cluster-256-hpc-256:87608:0]        mm_posix.c:291  UCX  ERROR shm_unlink(/ucx_shm_posix_48163a24) failed: No such file or directory
[1725067626.207256] [cluster-256-hpc-256:89894:0]        mm_posix.c:291  UCX  ERROR shm_unlink(/ucx_shm_posix_77dd0221) failed: No such file or directory
[1725067626.207324] [cluster-256-hpc-256:89894:0]        mm_posix.c:291  UCX  ERROR shm_unlink(/ucx_shm_posix_5012e874) failed: No such file or directory
[1725067626.207797] [cluster-256-hpc-256:89924:0]        mm_posix.c:291  UCX  ERROR shm_unlink(/ucx_shm_posix_22825a95) failed: No such file or directory
[1725067626.207854] [cluster-256-hpc-256:89924:0]        mm_posix.c:291  UCX  ERROR shm_unlink(/ucx_shm_posix_5d08f7ef) failed: No such file or directory
[1725067626.208376] [cluster-256-hpc-256:88567:0]        mm_posix.c:291  UCX  ERROR shm_unlink(/ucx_shm_posix_1fdee9b9) failed: No such file or directory
[1725067626.208451] [cluster-256-hpc-256:88567:0]        mm_posix.c:291  UCX  ERROR shm_unlink(/ucx_shm_posix_7ae9df14) failed: No such file or directory
[1725067626.208506] [cluster-256-hpc-256:90030:0]        mm_posix.c:291  UCX  ERROR shm_unlink(/ucx_shm_posix_30302cd7) failed: No such file or directory
[1725067626.208559] [cluster-256-hpc-256:90030:0]        mm_posix.c:291  UCX  ERROR shm_unlink(/ucx_shm_posix_5a20a4a7) failed: No such file or directory
[1725067626.208643] [cluster-256-hpc-256:90125:0]        mm_posix.c:291  UCX  ERROR shm_unlink(/ucx_shm_posix_3bcc78db) failed: No such file or directory
[1725067626.208714] [cluster-256-hpc-256:90125:0]        mm_posix.c:291  UCX  ERROR shm_unlink(/ucx_shm_posix_610157cb) failed: No such file or directory
[1725067626.209146] [cluster-256-hpc-256:89571:0]        mm_posix.c:291  UCX  ERROR shm_unlink(/ucx_shm_posix_41dadac8) failed: No such file or directory
[1725067626.209219] [cluster-256-hpc-256:89571:0]        mm_posix.c:291  UCX  ERROR shm_unlink(/ucx_shm_posix_d111b7) failed: No such file or directory
[1725067626.209186] [cluster-256-hpc-256:90085:0]        mm_posix.c:291  UCX  ERROR shm_unlink(/ucx_shm_posix_29c5f759) failed: No such file or directory
[1725067626.209250] [cluster-256-hpc-256:90085:0]        mm_posix.c:291  UCX  ERROR shm_unlink(/ucx_shm_posix_37f391c3) failed: No such file or directory
[1725067626.209404] [cluster-256-hpc-256:89764:0]        mm_posix.c:291  UCX  ERROR shm_unlink(/ucx_shm_posix_2a8440d8) failed: No such file or directory
[1725067626.209459] [cluster-256-hpc-256:89764:0]        mm_posix.c:291  UCX  ERROR shm_unlink(/ucx_shm_posix_481e9e4f) failed: No such file or directory
[1725067626.209518] [cluster-256-hpc-256:88820:0]        mm_posix.c:291  UCX  ERROR shm_unlink(/ucx_shm_posix_3f30ee24) failed: No such file or directory
[1725067626.209584] [cluster-256-hpc-256:88820:0]        mm_posix.c:291  UCX  ERROR shm_unlink(/ucx_shm_posix_7331f423) failed: No such file or directory
[1725067626.209540] [cluster-256-hpc-256:88823:0]        mm_posix.c:291  UCX  ERROR shm_unlink(/ucx_shm_posix_491473a4) failed: No such file or directory
[1725067626.209611] [cluster-256-hpc-256:88823:0]        mm_posix.c:291  UCX  ERROR shm_unlink(/ucx_shm_posix_dda6da9) failed: No such file or directory
[1725067626.209570] [cluster-256-hpc-256:87843:0]        mm_posix.c:291  UCX  ERROR shm_unlink(/ucx_shm_posix_6d59d7d5) failed: No such file or directory
[1725067626.209622] [cluster-256-hpc-256:87843:0]        mm_posix.c:291  UCX  ERROR shm_unlink(/ucx_shm_posix_72844342) failed: No such file or directory
[1725067626.209550] [cluster-256-hpc-256:89471:0]        mm_posix.c:291  UCX  ERROR shm_unlink(/ucx_shm_posix_f56591d) failed: No such file or directory
[1725067626.209619] [cluster-256-hpc-256:89471:0]        mm_posix.c:291  UCX  ERROR shm_unlink(/ucx_shm_posix_217f5682) failed: No such file or directory
[1725067626.209626] [cluster-256-hpc-256:88976:0]        mm_posix.c:291  UCX  ERROR shm_unlink(/ucx_shm_posix_6eaeab04) failed: No such file or directory
[1725067626.209697] [cluster-256-hpc-256:88976:0]        mm_posix.c:291  UCX  ERROR shm_unlink(/ucx_shm_posix_49a06763) failed: No such file or directory
[1725067626.209954] [cluster-256-hpc-256:87605:0]        mm_posix.c:291  UCX  ERROR shm_unlink(/ucx_shm_posix_4676e005) failed: No such file or directory
[1725067626.210005] [cluster-256-hpc-256:87605:0]        mm_posix.c:291  UCX  ERROR shm_unlink(/ucx_shm_posix_1b843118) failed: No such file or directory
[1725067626.209988] [cluster-256-hpc-256:87971:0]        mm_posix.c:291  UCX  ERROR shm_unlink(/ucx_shm_posix_1c836993) failed: No such file or directory
[1725067626.210045] [cluster-256-hpc-256:87971:0]        mm_posix.c:291  UCX  ERROR shm_unlink(/ucx_shm_posix_58b6e41c) failed: No such file or directory
[1725067626.210106] [cluster-256-hpc-256:89212:0]        mm_posix.c:291  UCX  ERROR shm_unlink(/ucx_shm_posix_58ab5085) failed: No such file or directory
[1725067626.210054] [cluster-256-hpc-256:89300:0]        mm_posix.c:291  UCX  ERROR shm_unlink(/ucx_shm_posix_58abcc9b) failed: No such file or directory
[1725067626.210118] [cluster-256-hpc-256:89300:0]        mm_posix.c:291  UCX  ERROR shm_unlink(/ucx_shm_posix_6f3f6aa8) failed: No such file or directory
[1725067626.210184] [cluster-256-hpc-256:89212:0]        mm_posix.c:291  UCX  ERROR shm_unlink(/ucx_shm_posix_2eba7d2a) failed: No such file or directory
[1725067626.210102] [cluster-256-hpc-256:87807:0]        mm_posix.c:291  UCX  ERROR shm_unlink(/ucx_shm_posix_6dde9bde) failed: No such file or directory
[1725067626.210154] [cluster-256-hpc-256:87807:0]        mm_posix.c:291  UCX  ERROR shm_unlink(/ucx_shm_posix_24711dcd) failed: No such file or directory
[1725067626.210228] [cluster-256-hpc-256:89679:0]        mm_posix.c:291  UCX  ERROR shm_unlink(/ucx_shm_posix_16bde0e8) failed: No such file or directory
[1725067626.210235] [cluster-256-hpc-256:88913:0]        mm_posix.c:291  UCX  ERROR shm_unlink(/ucx_shm_posix_73f8a31f) failed: No such file or directory
[1725067626.210295] [cluster-256-hpc-256:89679:0]        mm_posix.c:291  UCX  ERROR shm_unlink(/ucx_shm_posix_102ae4f7) failed: No such file or directory
[1725067626.210297] [cluster-256-hpc-256:88913:0]        mm_posix.c:291  UCX  ERROR shm_unlink(/ucx_shm_posix_6aedfccc) failed: No such file or directory
[1725067626.210561] [cluster-256-hpc-256:89299:0]        mm_posix.c:291  UCX  ERROR shm_unlink(/ucx_shm_posix_35d28fe) failed: No such file or directory
[1725067626.210605] [cluster-256-hpc-256:88895:0]        mm_posix.c:291  UCX  ERROR shm_unlink(/ucx_shm_posix_6f00e3df) failed: No such file or directory
[1725067626.210669] [cluster-256-hpc-256:88895:0]        mm_posix.c:291  UCX  ERROR shm_unlink(/ucx_shm_posix_210be818) failed: No such file or directory
[1725067626.210628] [cluster-256-hpc-256:89299:0]        mm_posix.c:291  UCX  ERROR shm_unlink(/ucx_shm_posix_28ce0b39) failed: No such file or directory
[1725067626.210603] [cluster-256-hpc-256:88108:0]        mm_posix.c:291  UCX  ERROR shm_unlink(/ucx_shm_posix_4e29fb86) failed: No such file or directory
[1725067626.210676] [cluster-256-hpc-256:88108:0]        mm_posix.c:291  UCX  ERROR shm_unlink(/ucx_shm_posix_27b6e22e) failed: No such file or directory
[1725067626.210650] [cluster-256-hpc-256:87890:0]        mm_posix.c:291  UCX  ERROR shm_unlink(/ucx_shm_posix_6f83c21e) failed: No such file or directory
[1725067626.210713] [cluster-256-hpc-256:87890:0]        mm_posix.c:291  UCX  ERROR shm_unlink(/ucx_shm_posix_1644591e) failed: No such file or directory
[1725067626.210815] [cluster-256-hpc-256:87960:0]        mm_posix.c:291  UCX  ERROR shm_unlink(/ucx_shm_posix_38552abb) failed: No such file or directory
[1725067626.210888] [cluster-256-hpc-256:87960:0]        mm_posix.c:291  UCX  ERROR shm_unlink(/ucx_shm_posix_378b2adc) failed: No such file or directory
[1725067626.210903] [cluster-256-hpc-256:88386:0]        mm_posix.c:291  UCX  ERROR shm_unlink(/ucx_shm_posix_2daa3d43) failed: No such file or directory
[1725067626.210959] [cluster-256-hpc-256:88386:0]        mm_posix.c:291  UCX  ERROR shm_unlink(/ucx_shm_posix_1f15e9e6) failed: No such file or directory
[1725067626.211371] [cluster-256-hpc-256:89822:0]        mm_posix.c:291  UCX  ERROR shm_unlink(/ucx_shm_posix_58354e0f) failed: No such file or directory
[1725067626.211424] [cluster-256-hpc-256:89822:0]        mm_posix.c:291  UCX  ERROR shm_unlink(/ucx_shm_posix_55a786a7) failed: No such file or directory
[1725067626.211405] [cluster-256-hpc-256:89514:0]        mm_posix.c:291  UCX  ERROR shm_unlink(/ucx_shm_posix_37571515) failed: No such file or directory
[1725067626.211457] [cluster-256-hpc-256:89514:0]        mm_posix.c:291  UCX  ERROR shm_unlink(/ucx_shm_posix_68495b62) failed: No such file or directory
[1725067626.211542] [cluster-256-hpc-256:89702:0]        mm_posix.c:291  UCX  ERROR shm_unlink(/ucx_shm_posix_6b038863) failed: No such file or directory
[1725067626.211603] [cluster-256-hpc-256:89702:0]        mm_posix.c:291  UCX  ERROR shm_unlink(/ucx_shm_posix_793caa6e) failed: No such file or directory
[1725067626.211594] [cluster-256-hpc-256:87607:0]        mm_posix.c:291  UCX  ERROR shm_unlink(/ucx_shm_posix_35294e03) failed: No such file or directory
[1725067626.211663] [cluster-256-hpc-256:87607:0]        mm_posix.c:291  UCX  ERROR shm_unlink(/ucx_shm_posix_33f87431) failed: No such file or directory
[1725067626.211622] [cluster-256-hpc-256:89335:0]        mm_posix.c:291  UCX  ERROR shm_unlink(/ucx_shm_posix_54eab837) failed: No such file or directory
[1725067626.211694] [cluster-256-hpc-256:89335:0]        mm_posix.c:291  UCX  ERROR shm_unlink(/ucx_shm_posix_1b8b6c9f) failed: No such file or directory
[1725067626.211789] [cluster-256-hpc-256:88156:0]        mm_posix.c:291  UCX  ERROR shm_unlink(/ucx_shm_posix_3637f455) failed: No such file or directory
[1725067626.211839] [cluster-256-hpc-256:88156:0]        mm_posix.c:291  UCX  ERROR shm_unlink(/ucx_shm_posix_6626146e) failed: No such file or directory
[1725067626.211782] [cluster-256-hpc-256:89210:0]        mm_posix.c:291  UCX  ERROR shm_unlink(/ucx_shm_posix_56345fdc) failed: No such file or directory
[1725067626.211844] [cluster-256-hpc-256:89210:0]        mm_posix.c:291  UCX  ERROR shm_unlink(/ucx_shm_posix_67b7b0d1) failed: No such file or directory
[1725067626.211758] [cluster-256-hpc-256:87961:0]        mm_posix.c:291  UCX  ERROR shm_unlink(/ucx_shm_posix_d03e1e3) failed: No such file or directory
[1725067626.211820] [cluster-256-hpc-256:87961:0]        mm_posix.c:291  UCX  ERROR shm_unlink(/ucx_shm_posix_d9465a0) failed: No such file or directory
[1725067626.211895] [cluster-256-hpc-256:89394:0]        mm_posix.c:291  UCX  ERROR shm_unlink(/ucx_shm_posix_a3abac0) failed: No such file or directory
[1725067626.211844] [cluster-256-hpc-256:88047:0]        mm_posix.c:291  UCX  ERROR shm_unlink(/ucx_shm_posix_12f14b77) failed: No such file or directory
[1725067626.211920] [cluster-256-hpc-256:88047:0]        mm_posix.c:291  UCX  ERROR shm_unlink(/ucx_shm_posix_600d411e) failed: No such file or directory
[1725067626.211956] [cluster-256-hpc-256:89394:0]        mm_posix.c:291  UCX  ERROR shm_unlink(/ucx_shm_posix_d7ee42a) failed: No such file or directory
[1725067626.211933] [cluster-256-hpc-256:89668:0]        mm_posix.c:291  UCX  ERROR shm_unlink(/ucx_shm_posix_c8b140b) failed: No such file or directory
[1725067626.211984] [cluster-256-hpc-256:89668:0]        mm_posix.c:291  UCX  ERROR shm_unlink(/ucx_shm_posix_61505da6) failed: No such file or directory
[1725067626.212124] [cluster-256-hpc-256:87836:0]        mm_posix.c:291  UCX  ERROR shm_unlink(/ucx_shm_posix_22fb2211) failed: No such file or directory
[1725067626.212179] [cluster-256-hpc-256:87836:0]        mm_posix.c:291  UCX  ERROR shm_unlink(/ucx_shm_posix_7f22411a) failed: No such file or directory
[1725067626.212280] [cluster-256-hpc-256:88958:0]        mm_posix.c:291  UCX  ERROR shm_unlink(/ucx_shm_posix_6765c71a) failed: No such file or directory
[1725067626.212344] [cluster-256-hpc-256:88958:0]        mm_posix.c:291  UCX  ERROR shm_unlink(/ucx_shm_posix_4a7213e2) failed: No such file or directory
[1725067626.212339] [cluster-256-hpc-256:88706:0]        mm_posix.c:291  UCX  ERROR shm_unlink(/ucx_shm_posix_74b34243) failed: No such file or directory
[1725067626.212388] [cluster-256-hpc-256:88706:0]        mm_posix.c:291  UCX  ERROR shm_unlink(/ucx_shm_posix_4cc1a1aa) failed: No such file or directory
[1725067626.212422] [cluster-256-hpc-256:88075:0]        mm_posix.c:291  UCX  ERROR shm_unlink(/ucx_shm_posix_55b631c5) failed: No such file or directory
[1725067626.212480] [cluster-256-hpc-256:88075:0]        mm_posix.c:291  UCX  ERROR shm_unlink(/ucx_shm_posix_3ac87c53) failed: No such file or directory
[1725067626.212447] [cluster-256-hpc-256:88630:0]        mm_posix.c:291  UCX  ERROR shm_unlink(/ucx_shm_posix_354fa0ae) failed: No such file or directory
[1725067626.212513] [cluster-256-hpc-256:88630:0]        mm_posix.c:291  UCX  ERROR shm_unlink(/ucx_shm_posix_5743795) failed: No such file or directory
[1725067626.212599] [cluster-256-hpc-256:87606:0]        mm_posix.c:291  UCX  ERROR shm_unlink(/ucx_shm_posix_124f5045) failed: No such file or directory
[1725067626.212630] [cluster-256-hpc-256:89393:0]        mm_posix.c:291  UCX  ERROR shm_unlink(/ucx_shm_posix_14473769) failed: No such file or directory
[1725067626.212661] [cluster-256-hpc-256:87606:0]        mm_posix.c:291  UCX  ERROR shm_unlink(/ucx_shm_posix_7208adb2) failed: No such file or directory
[1725067626.212710] [cluster-256-hpc-256:89460:0]        mm_posix.c:291  UCX  ERROR shm_unlink(/ucx_shm_posix_5495702d) failed: No such file or directory
[1725067626.212687] [cluster-256-hpc-256:89393:0]        mm_posix.c:291  UCX  ERROR shm_unlink(/ucx_shm_posix_3e08dcbe) failed: No such file or directory
[1725067626.212770] [cluster-256-hpc-256:89162:0]        mm_posix.c:291  UCX  ERROR shm_unlink(/ucx_shm_posix_98fc50d) failed: No such file or directory
[1725067626.212761] [cluster-256-hpc-256:89460:0]        mm_posix.c:291  UCX  ERROR shm_unlink(/ucx_shm_posix_3cb8cd0f) failed: No such file or directory
[1725067626.212819] [cluster-256-hpc-256:89162:0]        mm_posix.c:291  UCX  ERROR shm_unlink(/ucx_shm_posix_33f5acfd) failed: No such file or directory
[1725067626.212903] [cluster-256-hpc-256:88102:0]        mm_posix.c:291  UCX  ERROR shm_unlink(/ucx_shm_posix_1af0717c) failed: No such file or directory
[1725067626.212976] [cluster-256-hpc-256:88102:0]        mm_posix.c:291  UCX  ERROR shm_unlink(/ucx_shm_posix_31f4bb0c) failed: No such file or directory
[1725067626.213085] [cluster-256-hpc-256:89942:0]        mm_posix.c:291  UCX  ERROR shm_unlink(/ucx_shm_posix_60d0457) failed: No such file or directory
[1725067626.213156] [cluster-256-hpc-256:89942:0]        mm_posix.c:291  UCX  ERROR shm_unlink(/ucx_shm_posix_5f4d4fd9) failed: No such file or directory
[1725067626.213428] [cluster-256-hpc-256:88834:0]        mm_posix.c:291  UCX  ERROR shm_unlink(/ucx_shm_posix_1e395c7) failed: No such file or directory
[1725067626.213484] [cluster-256-hpc-256:88834:0]        mm_posix.c:291  UCX  ERROR shm_unlink(/ucx_shm_posix_2550c4df) failed: No such file or directory
[1725067626.213570] [cluster-256-hpc-256:88983:0]        mm_posix.c:291  UCX  ERROR shm_unlink(/ucx_shm_posix_407af9b8) failed: No such file or directory
[1725067626.213628] [cluster-256-hpc-256:88983:0]        mm_posix.c:291  UCX  ERROR shm_unlink(/ucx_shm_posix_63a09de5) failed: No such file or directory
[1725067626.213621] [cluster-256-hpc-256:89209:0]        mm_posix.c:291  UCX  ERROR shm_unlink(/ucx_shm_posix_6e7ac150) failed: No such file or directory
[1725067626.213685] [cluster-256-hpc-256:89209:0]        mm_posix.c:291  UCX  ERROR shm_unlink(/ucx_shm_posix_2838abb0) failed: No such file or directory
[1725067626.213792] [cluster-256-hpc-256:88143:0]        mm_posix.c:291  UCX  ERROR shm_unlink(/ucx_shm_posix_78bc87bb) failed: No such file or directory
[1725067626.213858] [cluster-256-hpc-256:88143:0]        mm_posix.c:291  UCX  ERROR shm_unlink(/ucx_shm_posix_5e10704) failed: No such file or directory
[1725067626.213922] [cluster-256-hpc-256:89765:0]        mm_posix.c:291  UCX  ERROR shm_unlink(/ucx_shm_posix_7829fafb) failed: No such file or directory
[1725067626.213992] [cluster-256-hpc-256:88956:0]        mm_posix.c:291  UCX  ERROR shm_unlink(/ucx_shm_posix_56672712) failed: No such file or directory
[1725067626.213978] [cluster-256-hpc-256:89765:0]        mm_posix.c:291  UCX  ERROR shm_unlink(/ucx_shm_posix_103094a8) failed: No such file or directory
[1725067626.214040] [cluster-256-hpc-256:88956:0]        mm_posix.c:291  UCX  ERROR shm_unlink(/ucx_shm_posix_35fcf565) failed: No such file or directory
[1725067626.214123] [cluster-256-hpc-256:88505:0]        mm_posix.c:291  UCX  ERROR shm_unlink(/ucx_shm_posix_8bd4408) failed: No such file or directory
[1725067626.214169] [cluster-256-hpc-256:88505:0]        mm_posix.c:291  UCX  ERROR shm_unlink(/ucx_shm_posix_591ca997) failed: No such file or directory
[1725067626.214333] [cluster-256-hpc-256:88661:0]        mm_posix.c:291  UCX  ERROR shm_unlink(/ucx_shm_posix_47b75edf) failed: No such file or directory
[1725067626.214391] [cluster-256-hpc-256:88661:0]        mm_posix.c:291  UCX  ERROR shm_unlink(/ucx_shm_posix_41e3dcec) failed: No such file or directory
[1725067626.214478] [cluster-256-hpc-256:88779:0]        mm_posix.c:291  UCX  ERROR shm_unlink(/ucx_shm_posix_7ecc8a23) failed: No such file or directory
[1725067626.214538] [cluster-256-hpc-256:88779:0]        mm_posix.c:291  UCX  ERROR shm_unlink(/ucx_shm_posix_444114de) failed: No such file or directory
[1725067626.214891] [cluster-256-hpc-256:87967:0]        mm_posix.c:291  UCX  ERROR shm_unlink(/ucx_shm_posix_385b5105) failed: No such file or directory
[1725067626.214939] [cluster-256-hpc-256:87967:0]        mm_posix.c:291  UCX  ERROR shm_unlink(/ucx_shm_posix_42342483) failed: No such file or directory
[1725067626.215580] [cluster-256-hpc-256:88813:0]        mm_posix.c:291  UCX  ERROR shm_unlink(/ucx_shm_posix_3bff5fd1) failed: No such file or directory
[1725067626.215633] [cluster-256-hpc-256:88813:0]        mm_posix.c:291  UCX  ERROR shm_unlink(/ucx_shm_posix_24be36de) failed: No such file or directory
[1725067626.215857] [cluster-256-hpc-256:88606:0]        mm_posix.c:291  UCX  ERROR shm_unlink(/ucx_shm_posix_4f1399e0) failed: No such file or directory
[1725067626.215916] [cluster-256-hpc-256:88606:0]        mm_posix.c:291  UCX  ERROR shm_unlink(/ucx_shm_posix_625f8bf5) failed: No such file or directory
[1725067626.216131] [cluster-256-hpc-256:88391:0]        mm_posix.c:291  UCX  ERROR shm_unlink(/ucx_shm_posix_226c35eb) failed: No such file or directory
[1725067626.216191] [cluster-256-hpc-256:88391:0]        mm_posix.c:291  UCX  ERROR shm_unlink(/ucx_shm_posix_659f2c4e) failed: No such file or directory
[1725067626.216195] [cluster-256-hpc-256:88879:0]        mm_posix.c:291  UCX  ERROR shm_unlink(/ucx_shm_posix_47362ac) failed: No such file or directory
[1725067626.216264] [cluster-256-hpc-256:88879:0]        mm_posix.c:291  UCX  ERROR shm_unlink(/ucx_shm_posix_77fc4db) failed: No such file or directory
[1725067626.216299] [cluster-256-hpc-256:88716:0]        mm_posix.c:291  UCX  ERROR shm_unlink(/ucx_shm_posix_2908e581) failed: No such file or directory
[1725067626.216349] [cluster-256-hpc-256:88716:0]        mm_posix.c:291  UCX  ERROR shm_unlink(/ucx_shm_posix_199a457f) failed: No such file or directory
[1725067626.216480] [cluster-256-hpc-256:88944:0]        mm_posix.c:291  UCX  ERROR shm_unlink(/ucx_shm_posix_314812) failed: No such file or directory
[1725067626.216532] [cluster-256-hpc-256:88944:0]        mm_posix.c:291  UCX  ERROR shm_unlink(/ucx_shm_posix_21de8f6f) failed: No such file or directory
[1725067626.216561] [cluster-256-hpc-256:89517:0]        mm_posix.c:291  UCX  ERROR shm_unlink(/ucx_shm_posix_6b4402c6) failed: No such file or directory
[1725067626.216654] [cluster-256-hpc-256:89517:0]        mm_posix.c:291  UCX  ERROR shm_unlink(/ucx_shm_posix_4d840d7a) failed: No such file or directory
[1725067626.216579] [cluster-256-hpc-256:88149:0]        mm_posix.c:291  UCX  ERROR shm_unlink(/ucx_shm_posix_242c1d97) failed: No such file or directory
[1725067626.216637] [cluster-256-hpc-256:88149:0]        mm_posix.c:291  UCX  ERROR shm_unlink(/ucx_shm_posix_49b751ee) failed: No such file or directory
[1725067626.216592] [cluster-256-hpc-256:89403:0]        mm_posix.c:291  UCX  ERROR shm_unlink(/ucx_shm_posix_658d20e8) failed: No such file or directory
[1725067626.216673] [cluster-256-hpc-256:89403:0]        mm_posix.c:291  UCX  ERROR shm_unlink(/ucx_shm_posix_33942f1e) failed: No such file or directory
[1725067626.216733] [cluster-256-hpc-256:88461:0]        mm_posix.c:291  UCX  ERROR shm_unlink(/ucx_shm_posix_4a35b4f9) failed: No such file or directory
[1725067626.216647] [cluster-256-hpc-256:88189:0]        mm_posix.c:291  UCX  ERROR shm_unlink(/ucx_shm_posix_665d84af) failed: No such file or directory
[1725067626.216726] [cluster-256-hpc-256:88189:0]        mm_posix.c:291  UCX  ERROR shm_unlink(/ucx_shm_posix_c20c07e) failed: No such file or directory
[1725067626.216786] [cluster-256-hpc-256:88461:0]        mm_posix.c:291  UCX  ERROR shm_unlink(/ucx_shm_posix_57a902bd) failed: No such file or directory
[1725067626.216749] [cluster-256-hpc-256:88771:0]        mm_posix.c:291  UCX  ERROR shm_unlink(/ucx_shm_posix_6af53bf) failed: No such file or directory
[1725067626.216815] [cluster-256-hpc-256:88771:0]        mm_posix.c:291  UCX  ERROR shm_unlink(/ucx_shm_posix_49d24623) failed: No such file or directory
[1725067626.216980] [cluster-256-hpc-256:89669:0]        mm_posix.c:291  UCX  ERROR shm_unlink(/ucx_shm_posix_19b9da7a) failed: No such file or directory
[1725067626.217029] [cluster-256-hpc-256:89669:0]        mm_posix.c:291  UCX  ERROR shm_unlink(/ucx_shm_posix_2fb38c08) failed: No such file or directory
[1725067626.216992] [cluster-256-hpc-256:88032:0]        mm_posix.c:291  UCX  ERROR shm_unlink(/ucx_shm_posix_6bdf62c9) failed: No such file or directory
[1725067626.217040] [cluster-256-hpc-256:88032:0]        mm_posix.c:291  UCX  ERROR shm_unlink(/ucx_shm_posix_5b1277d5) failed: No such file or directory
[1725067626.216967] [cluster-256-hpc-256:88362:0]        mm_posix.c:291  UCX  ERROR shm_unlink(/ucx_shm_posix_5d619857) failed: No such file or directory
[1725067626.217028] [cluster-256-hpc-256:88362:0]        mm_posix.c:291  UCX  ERROR shm_unlink(/ucx_shm_posix_3277a5da) failed: No such file or directory
[1725067626.217111] [cluster-256-hpc-256:89570:0]        mm_posix.c:291  UCX  ERROR shm_unlink(/ucx_shm_posix_44f83b4c) failed: No such file or directory
[1725067626.217056] [cluster-256-hpc-256:88138:0]        mm_posix.c:291  UCX  ERROR shm_unlink(/ucx_shm_posix_45afbe6b) failed: No such file or directory
[1725067626.217126] [cluster-256-hpc-256:88138:0]        mm_posix.c:291  UCX  ERROR shm_unlink(/ucx_shm_posix_110e6256) failed: No such file or directory
[1725067626.217217] [cluster-256-hpc-256:89306:0]        mm_posix.c:291  UCX  ERROR shm_unlink(/ucx_shm_posix_db29ef8) failed: No such file or directory
[1725067626.217270] [cluster-256-hpc-256:89306:0]        mm_posix.c:291  UCX  ERROR shm_unlink(/ucx_shm_posix_66ce5d91) failed: No such file or directory
[1725067626.217166] [cluster-256-hpc-256:89570:0]        mm_posix.c:291  UCX  ERROR shm_unlink(/ucx_shm_posix_45ac4621) failed: No such file or directory
[1725067626.217211] [cluster-256-hpc-256:89585:0]        mm_posix.c:291  UCX  ERROR shm_unlink(/ucx_shm_posix_24e82ad) failed: No such file or directory
[1725067626.217258] [cluster-256-hpc-256:89585:0]        mm_posix.c:291  UCX  ERROR shm_unlink(/ucx_shm_posix_372dd524) failed: No such file or directory
[1725067626.217196] [cluster-256-hpc-256:87850:0]        mm_posix.c:291  UCX  ERROR shm_unlink(/ucx_shm_posix_150fa9a8) failed: No such file or directory
[1725067626.217293] [cluster-256-hpc-256:87850:0]        mm_posix.c:291  UCX  ERROR shm_unlink(/ucx_shm_posix_3c40f42b) failed: No such file or directory
[1725067626.217358] [cluster-256-hpc-256:88434:0]        mm_posix.c:291  UCX  ERROR shm_unlink(/ucx_shm_posix_642c9b5f) failed: No such file or directory
[1725067626.217429] [cluster-256-hpc-256:88434:0]        mm_posix.c:291  UCX  ERROR shm_unlink(/ucx_shm_posix_55ffcf00) failed: No such file or directory
[1725067626.217536] [cluster-256-hpc-256:88484:0]        mm_posix.c:291  UCX  ERROR shm_unlink(/ucx_shm_posix_293362f2) failed: No such file or directory
[1725067626.217589] [cluster-256-hpc-256:88484:0]        mm_posix.c:291  UCX  ERROR shm_unlink(/ucx_shm_posix_1e5f8f5) failed: No such file or directory
[1725067626.217702] [cluster-256-hpc-256:88553:0]        mm_posix.c:291  UCX  ERROR shm_unlink(/ucx_shm_posix_228cbe48) failed: No such file or directory
[1725067626.217758] [cluster-256-hpc-256:88553:0]        mm_posix.c:291  UCX  ERROR shm_unlink(/ucx_shm_posix_19a9d8a) failed: No such file or directory
[1725067626.218084] [cluster-256-hpc-256:89829:0]        mm_posix.c:291  UCX  ERROR shm_unlink(/ucx_shm_posix_773ff7e7) failed: No such file or directory
[1725067626.218136] [cluster-256-hpc-256:89829:0]        mm_posix.c:291  UCX  ERROR shm_unlink(/ucx_shm_posix_36a25df8) failed: No such file or directory
[1725067626.220705] [cluster-256-hpc-256:88059:0]        mm_posix.c:291  UCX  ERROR shm_unlink(/ucx_shm_posix_3655350d) failed: No such file or directory
[1725067626.220827] [cluster-256-hpc-256:88059:0]        mm_posix.c:291  UCX  ERROR shm_unlink(/ucx_shm_posix_51cec216) failed: No such file or directory
End time: 1725067626
