Start time: 1725067283
WARNING on proc 0: Cannot open log.lammps for writing: Read-only file system (src/lammps.cpp:511)
LAMMPS (17 Apr 2024 - Development - a8687b5)
OMP_NUM_THREADS environment is not set. Defaulting to 1 thread. (src/comm.cpp:98)
  using 1 OpenMP thread(s) per MPI task
Reading data file ...
  triclinic box = (0 0 0) to (22.326 11.1412 13.778966) with tilt (0 -5.02603 0)
  32 by 16 by 24 MPI processor grid
  reading atoms ...
  304 atoms
  reading velocities ...
  304 velocities
  read_data CPU = 0.203 seconds
Replication is creating a 64x64x32 = 131072 times larger system...
  triclinic box = (0 0 0) to (1428.864 713.0368 440.92691) with tilt (0 -160.83296 0)
  32 by 24 by 16 MPI processor grid
  bounding box image = (0 -1 -1) to (0 1 1)
  bounding box extra memory = 0.03 MB
  average # of replicas added to proc = 43.93 out of 131072 (0.03%)
  39845888 atoms
  replicate CPU = 0.331 seconds

CITE-CITE-CITE-CITE-CITE-CITE-CITE-CITE-CITE-CITE-CITE-CITE-CITE

Your simulation uses code contributions which should be cited:
- pair reaxff command: doi:10.1016/j.parco.2011.08.005
- fix qeq/reaxff command: doi:10.1016/j.parco.2011.08.005
The log file lists these citations in BibTeX format.

CITE-CITE-CITE-CITE-CITE-CITE-CITE-CITE-CITE-CITE-CITE-CITE-CITE

Neighbor list info ...
  update: every = 20 steps, delay = 0 steps, check = no
  max neighbors/atom: 2000, page size: 100000
  master list distance cutoff = 11
  ghost atom cutoff = 11
  binsize = 5.5, bins = 290 130 81
  2 neighbor lists, perpetual/occasional/extra = 2 0 0
  (1) pair reaxff, perpetual
      attributes: half, newton off, ghost
      pair build: half/bin/ghost/newtoff
      stencil: full/ghost/bin/3d
      bin: standard
  (2) fix qeq/reax, perpetual, copy from (1)
      attributes: half, newton off
      pair build: copy
      stencil: none
      bin: none
Setting up Verlet run ...
  Unit style    : real
  Current step  : 0
  Time step     : 0.1
Per MPI rank memory allocation (min/avg/max) = 252.6 | 252.8 | 253 Mbytes
   Step          Temp          PotEng         Press          E_vdwl         E_coul         Volume    
         0   300           -113.27833      439.02048     -111.57687     -1.7014647      4.4923072e+08
        10   300.76708     -113.28045      807.30078     -111.57901     -1.7014362      4.4923072e+08
        20   302.42351     -113.28524      1696.9908     -111.58392     -1.7013253      4.4923072e+08
        30   302.57588     -113.28557      4297.9273     -111.58447     -1.7010962      4.4923072e+08
        40   300.62223     -113.27967      6393.3851     -111.5789      -1.7007688      4.4923072e+08
        50   297.4189      -113.27008      6471.1308     -111.56968     -1.7004027      4.4923072e+08
        60   294.72953     -113.26202      6185.7111     -111.56199     -1.7000318      4.4923072e+08
        70   294.6668      -113.26179      6831.2232     -111.56213     -1.6996547      4.4923072e+08
        80   297.78807     -113.27107      8233.8672     -111.5718      -1.699276       4.4923072e+08
        90   301.67958     -113.28267      9372.0856     -111.58373     -1.6989385      4.4923072e+08
       100   302.56511     -113.28525      10370.591     -111.58656     -1.698695       4.4923072e+08
Loop time of 67.5712 on 12288 procs for 100 steps with 39845888 atoms

Performance: 0.013 ns/day, 1876.979 hours/ns, 1.480 timesteps/s, 58.969 Matom-step/s
99.8% CPU use with 12288 MPI tasks x 1 OpenMP threads

MPI task timing breakdown:
Section |  min time  |  avg time  |  max time  |%varavg| %total
---------------------------------------------------------------
Pair    | 20.47      | 23.293     | 34.709     |  12.4 | 34.47
Neigh   | 0.35671    | 0.37488    | 0.45926    |   1.0 |  0.55
Comm    | 0.071571   | 1.6096     | 13.22      |  96.4 |  2.38
Output  | 0.24647    | 1.3176     | 1.4249     |   5.9 |  1.95
Modify  | 32.12      | 40.973     | 41.916     |  15.9 | 60.64
Other   |            | 0.002941   |            |       |  0.00

Nlocal:        3242.67 ave        3269 max        3209 min
Histogram: 23 549 2171 1246 116 425 2815 3833 1068 42
Nghost:        12107.8 ave       12146 max       12063 min
Histogram: 61 401 1227 1688 1299 1933 3079 1959 573 68
Neighs:    1.07025e+06 ave 1.07789e+06 max 1.06022e+06 min
Histogram: 40 602 2069 1230 171 520 2842 3728 1040 46

Total # of neighbors = 1.3151174e+10
Ave neighs/atom = 330.05097
Neighbor list builds = 5
Dangerous builds not checked
Total wall time: 0:01:10
[1725067366.019988] [cluster-256-hpc-256:72431:0]        mm_posix.c:291  UCX  ERROR shm_unlink(/ucx_shm_posix_6e913d34) failed: No such file or directory
[1725067366.020338] [cluster-256-hpc-256:72431:0]        mm_posix.c:291  UCX  ERROR shm_unlink(/ucx_shm_posix_7379cb9a) failed: No such file or directory
[1725067366.020111] [cluster-256-hpc-256:73470:0]        mm_posix.c:291  UCX  ERROR shm_unlink(/ucx_shm_posix_54fbf95b) failed: No such file or directory
[1725067366.020489] [cluster-256-hpc-256:73470:0]        mm_posix.c:291  UCX  ERROR shm_unlink(/ucx_shm_posix_1c86be2b) failed: No such file or directory
[1725067366.020168] [cluster-256-hpc-256:73474:0]        mm_posix.c:291  UCX  ERROR shm_unlink(/ucx_shm_posix_1afd488) failed: No such file or directory
[1725067366.020477] [cluster-256-hpc-256:73474:0]        mm_posix.c:291  UCX  ERROR shm_unlink(/ucx_shm_posix_785c49ee) failed: No such file or directory
[1725067366.020342] [cluster-256-hpc-256:73497:0]        mm_posix.c:291  UCX  ERROR shm_unlink(/ucx_shm_posix_53dc6e45) failed: No such file or directory
[1725067366.020247] [cluster-256-hpc-256:73496:0]        mm_posix.c:291  UCX  ERROR shm_unlink(/ucx_shm_posix_26faaa33) failed: No such file or directory
[1725067366.020693] [cluster-256-hpc-256:73496:0]        mm_posix.c:291  UCX  ERROR shm_unlink(/ucx_shm_posix_1024d793) failed: No such file or directory
[1725067366.020390] [cluster-256-hpc-256:73520:0]        mm_posix.c:291  UCX  ERROR shm_unlink(/ucx_shm_posix_7995531c) failed: No such file or directory
[1725067366.020716] [cluster-256-hpc-256:73520:0]        mm_posix.c:291  UCX  ERROR shm_unlink(/ucx_shm_posix_500218b7) failed: No such file or directory
[1725067366.019931] [cluster-256-hpc-256:71701:0]        mm_posix.c:291  UCX  ERROR shm_unlink(/ucx_shm_posix_51fda1ee) failed: No such file or directory
[1725067366.019966] [cluster-256-hpc-256:72096:0]        mm_posix.c:291  UCX  ERROR shm_unlink(/ucx_shm_posix_7c1df90b) failed: No such file or directory
[1725067366.020647] [cluster-256-hpc-256:72096:0]        mm_posix.c:291  UCX  ERROR shm_unlink(/ucx_shm_posix_34e7b936) failed: No such file or directory
[1725067366.020246] [cluster-256-hpc-256:72193:0]        mm_posix.c:291  UCX  ERROR shm_unlink(/ucx_shm_posix_7ad8f83) failed: No such file or directory
[1725067366.020680] [cluster-256-hpc-256:72193:0]        mm_posix.c:291  UCX  ERROR shm_unlink(/ucx_shm_posix_4252ff59) failed: No such file or directory
[1725067366.020163] [cluster-256-hpc-256:72200:0]        mm_posix.c:291  UCX  ERROR shm_unlink(/ucx_shm_posix_66006161) failed: No such file or directory
[1725067366.020540] [cluster-256-hpc-256:72200:0]        mm_posix.c:291  UCX  ERROR shm_unlink(/ucx_shm_posix_71573f92) failed: No such file or directory
[1725067366.020219] [cluster-256-hpc-256:72265:0]        mm_posix.c:291  UCX  ERROR shm_unlink(/ucx_shm_posix_4a134d16) failed: No such file or directory
[1725067366.020626] [cluster-256-hpc-256:72265:0]        mm_posix.c:291  UCX  ERROR shm_unlink(/ucx_shm_posix_295b8274) failed: No such file or directory
[1725067366.020211] [cluster-256-hpc-256:72296:0]        mm_posix.c:291  UCX  ERROR shm_unlink(/ucx_shm_posix_232d2a83) failed: No such file or directory
[1725067366.020809] [cluster-256-hpc-256:72296:0]        mm_posix.c:291  UCX  ERROR shm_unlink(/ucx_shm_posix_4d146d56) failed: No such file or directory
[1725067366.020085] [cluster-256-hpc-256:72281:0]        mm_posix.c:291  UCX  ERROR shm_unlink(/ucx_shm_posix_988a7ba) failed: No such file or directory
[1725067366.020514] [cluster-256-hpc-256:72281:0]        mm_posix.c:291  UCX  ERROR shm_unlink(/ucx_shm_posix_6aa5b9be) failed: No such file or directory
[1725067366.020042] [cluster-256-hpc-256:72312:0]        mm_posix.c:291  UCX  ERROR shm_unlink(/ucx_shm_posix_2f9bf089) failed: No such file or directory
[1725067366.020367] [cluster-256-hpc-256:72312:0]        mm_posix.c:291  UCX  ERROR shm_unlink(/ucx_shm_posix_538a4bb1) failed: No such file or directory
[1725067366.020198] [cluster-256-hpc-256:72360:0]        mm_posix.c:291  UCX  ERROR shm_unlink(/ucx_shm_posix_fe8ae73) failed: No such file or directory
[1725067366.020574] [cluster-256-hpc-256:72360:0]        mm_posix.c:291  UCX  ERROR shm_unlink(/ucx_shm_posix_3d6b60a7) failed: No such file or directory
[1725067366.020469] [cluster-256-hpc-256:72426:0]        mm_posix.c:291  UCX  ERROR shm_unlink(/ucx_shm_posix_217d6aa5) failed: No such file or directory
[1725067366.020797] [cluster-256-hpc-256:72426:0]        mm_posix.c:291  UCX  ERROR shm_unlink(/ucx_shm_posix_23a4791a) failed: No such file or directory
[1725067366.020269] [cluster-256-hpc-256:72378:0]        mm_posix.c:291  UCX  ERROR shm_unlink(/ucx_shm_posix_45b2ca08) failed: No such file or directory
[1725067366.020741] [cluster-256-hpc-256:72378:0]        mm_posix.c:291  UCX  ERROR shm_unlink(/ucx_shm_posix_7a34fc16) failed: No such file or directory
[1725067366.020194] [cluster-256-hpc-256:72462:0]        mm_posix.c:291  UCX  ERROR shm_unlink(/ucx_shm_posix_4280e19c) failed: No such file or directory
[1725067366.020753] [cluster-256-hpc-256:72462:0]        mm_posix.c:291  UCX  ERROR shm_unlink(/ucx_shm_posix_42d292dd) failed: No such file or directory
[1725067366.020077] [cluster-256-hpc-256:72503:0]        mm_posix.c:291  UCX  ERROR shm_unlink(/ucx_shm_posix_196563a7) failed: No such file or directory
[1725067366.020171] [cluster-256-hpc-256:72503:0]        mm_posix.c:291  UCX  ERROR shm_unlink(/ucx_shm_posix_e19a98a) failed: No such file or directory
[1725067366.020320] [cluster-256-hpc-256:72523:0]        mm_posix.c:291  UCX  ERROR shm_unlink(/ucx_shm_posix_1fee0820) failed: No such file or directory
[1725067366.020789] [cluster-256-hpc-256:72523:0]        mm_posix.c:291  UCX  ERROR shm_unlink(/ucx_shm_posix_37cca255) failed: No such file or directory
[1725067366.020501] [cluster-256-hpc-256:72531:0]        mm_posix.c:291  UCX  ERROR shm_unlink(/ucx_shm_posix_63448f4b) failed: No such file or directory
[1725067366.020731] [cluster-256-hpc-256:72531:0]        mm_posix.c:291  UCX  ERROR shm_unlink(/ucx_shm_posix_3fb7b59f) failed: No such file or directory
[1725067366.020273] [cluster-256-hpc-256:72581:0]        mm_posix.c:291  UCX  ERROR shm_unlink(/ucx_shm_posix_6dc4e45f) failed: No such file or directory
[1725067366.020699] [cluster-256-hpc-256:72581:0]        mm_posix.c:291  UCX  ERROR shm_unlink(/ucx_shm_posix_570da3eb) failed: No such file or directory
[1725067366.020285] [cluster-256-hpc-256:72627:0]        mm_posix.c:291  UCX  ERROR shm_unlink(/ucx_shm_posix_1a65fa3b) failed: No such file or directory
[1725067366.020774] [cluster-256-hpc-256:72627:0]        mm_posix.c:291  UCX  ERROR shm_unlink(/ucx_shm_posix_374e0e85) failed: No such file or directory
[1725067366.020391] [cluster-256-hpc-256:72584:0]        mm_posix.c:291  UCX  ERROR shm_unlink(/ucx_shm_posix_30e98ec2) failed: No such file or directory
[1725067366.020802] [cluster-256-hpc-256:72584:0]        mm_posix.c:291  UCX  ERROR shm_unlink(/ucx_shm_posix_1f5161e1) failed: No such file or directory
[1725067366.020156] [cluster-256-hpc-256:72640:0]        mm_posix.c:291  UCX  ERROR shm_unlink(/ucx_shm_posix_1207636a) failed: No such file or directory
[1725067366.020608] [cluster-256-hpc-256:72640:0]        mm_posix.c:291  UCX  ERROR shm_unlink(/ucx_shm_posix_729a8cef) failed: No such file or directory
[1725067366.020223] [cluster-256-hpc-256:72706:0]        mm_posix.c:291  UCX  ERROR shm_unlink(/ucx_shm_posix_47c981bf) failed: No such file or directory
[1725067366.020648] [cluster-256-hpc-256:72706:0]        mm_posix.c:291  UCX  ERROR shm_unlink(/ucx_shm_posix_62c37865) failed: No such file or directory
[1725067366.020287] [cluster-256-hpc-256:72749:0]        mm_posix.c:291  UCX  ERROR shm_unlink(/ucx_shm_posix_7ea979c9) failed: No such file or directory
[1725067366.020806] [cluster-256-hpc-256:72749:0]        mm_posix.c:291  UCX  ERROR shm_unlink(/ucx_shm_posix_241aa8cb) failed: No such file or directory
[1725067366.020292] [cluster-256-hpc-256:72648:0]        mm_posix.c:291  UCX  ERROR shm_unlink(/ucx_shm_posix_28b1c8bf) failed: No such file or directory
[1725067366.020756] [cluster-256-hpc-256:72648:0]        mm_posix.c:291  UCX  ERROR shm_unlink(/ucx_shm_posix_6c3718b7) failed: No such file or directory
[1725067366.020146] [cluster-256-hpc-256:72758:0]        mm_posix.c:291  UCX  ERROR shm_unlink(/ucx_shm_posix_5344a17) failed: No such file or directory
[1725067366.020599] [cluster-256-hpc-256:72758:0]        mm_posix.c:291  UCX  ERROR shm_unlink(/ucx_shm_posix_6e497a8b) failed: No such file or directory
[1725067366.020234] [cluster-256-hpc-256:72832:0]        mm_posix.c:291  UCX  ERROR shm_unlink(/ucx_shm_posix_4c8520d0) failed: No such file or directory
[1725067366.020649] [cluster-256-hpc-256:72832:0]        mm_posix.c:291  UCX  ERROR shm_unlink(/ucx_shm_posix_60b72a87) failed: No such file or directory
[1725067366.020233] [cluster-256-hpc-256:72836:0]        mm_posix.c:291  UCX  ERROR shm_unlink(/ucx_shm_posix_b42a23d) failed: No such file or directory
[1725067366.020786] [cluster-256-hpc-256:72786:0]        mm_posix.c:291  UCX  ERROR shm_unlink(/ucx_shm_posix_240afdab) failed: No such file or directory
[1725067366.020860] [cluster-256-hpc-256:72786:0]        mm_posix.c:291  UCX  ERROR shm_unlink(/ucx_shm_posix_3f32593) failed: No such file or directory
[1725067366.020131] [cluster-256-hpc-256:72902:0]        mm_posix.c:291  UCX  ERROR shm_unlink(/ucx_shm_posix_412ac337) failed: No such file or directory
[1725067366.020541] [cluster-256-hpc-256:72902:0]        mm_posix.c:291  UCX  ERROR shm_unlink(/ucx_shm_posix_1b9179f8) failed: No such file or directory
[1725067366.020177] [cluster-256-hpc-256:72915:0]        mm_posix.c:291  UCX  ERROR shm_unlink(/ucx_shm_posix_142b7bd4) failed: No such file or directory
[1725067366.020519] [cluster-256-hpc-256:72915:0]        mm_posix.c:291  UCX  ERROR shm_unlink(/ucx_shm_posix_23567170) failed: No such file or directory
[1725067366.020398] [cluster-256-hpc-256:72963:0]        mm_posix.c:291  UCX  ERROR shm_unlink(/ucx_shm_posix_67ffe80a) failed: No such file or directory
[1725067366.020787] [cluster-256-hpc-256:72963:0]        mm_posix.c:291  UCX  ERROR shm_unlink(/ucx_shm_posix_495a2c0) failed: No such file or directory
[1725067366.020185] [cluster-256-hpc-256:72896:0]        mm_posix.c:291  UCX  ERROR shm_unlink(/ucx_shm_posix_465ffffa) failed: No such file or directory
[1725067366.020527] [cluster-256-hpc-256:72896:0]        mm_posix.c:291  UCX  ERROR shm_unlink(/ucx_shm_posix_2cfe0a99) failed: No such file or directory
[1725067366.020134] [cluster-256-hpc-256:72983:0]        mm_posix.c:291  UCX  ERROR shm_unlink(/ucx_shm_posix_4e31f5ed) failed: No such file or directory
[1725067366.020588] [cluster-256-hpc-256:72983:0]        mm_posix.c:291  UCX  ERROR shm_unlink(/ucx_shm_posix_2dd0fd3d) failed: No such file or directory
[1725067366.020464] [cluster-256-hpc-256:73036:0]        mm_posix.c:291  UCX  ERROR shm_unlink(/ucx_shm_posix_73b10239) failed: No such file or directory
[1725067366.020758] [cluster-256-hpc-256:73036:0]        mm_posix.c:291  UCX  ERROR shm_unlink(/ucx_shm_posix_4ef18d13) failed: No such file or directory
[1725067366.020252] [cluster-256-hpc-256:73077:0]        mm_posix.c:291  UCX  ERROR shm_unlink(/ucx_shm_posix_229dec71) failed: No such file or directory
[1725067366.020750] [cluster-256-hpc-256:73077:0]        mm_posix.c:291  UCX  ERROR shm_unlink(/ucx_shm_posix_6e48d3f7) failed: No such file or directory
[1725067366.020176] [cluster-256-hpc-256:72980:0]        mm_posix.c:291  UCX  ERROR shm_unlink(/ucx_shm_posix_250539b8) failed: No such file or directory
[1725067366.020668] [cluster-256-hpc-256:72980:0]        mm_posix.c:291  UCX  ERROR shm_unlink(/ucx_shm_posix_3d9c86e8) failed: No such file or directory
[1725067366.020124] [cluster-256-hpc-256:73081:0]        mm_posix.c:291  UCX  ERROR shm_unlink(/ucx_shm_posix_cb1de45) failed: No such file or directory
[1725067366.020515] [cluster-256-hpc-256:73081:0]        mm_posix.c:291  UCX  ERROR shm_unlink(/ucx_shm_posix_361962dd) failed: No such file or directory
[1725067366.020191] [cluster-256-hpc-256:73152:0]        mm_posix.c:291  UCX  ERROR shm_unlink(/ucx_shm_posix_71ac0742) failed: No such file or directory
[1725067366.020546] [cluster-256-hpc-256:73152:0]        mm_posix.c:291  UCX  ERROR shm_unlink(/ucx_shm_posix_6ea6088b) failed: No such file or directory
[1725067366.020230] [cluster-256-hpc-256:73166:0]        mm_posix.c:291  UCX  ERROR shm_unlink(/ucx_shm_posix_4ddac8bd) failed: No such file or directory
[1725067366.020732] [cluster-256-hpc-256:73166:0]        mm_posix.c:291  UCX  ERROR shm_unlink(/ucx_shm_posix_7107cffe) failed: No such file or directory
[1725067366.020302] [cluster-256-hpc-256:73089:0]        mm_posix.c:291  UCX  ERROR shm_unlink(/ucx_shm_posix_2cac94e7) failed: No such file or directory
[1725067366.020782] [cluster-256-hpc-256:73089:0]        mm_posix.c:291  UCX  ERROR shm_unlink(/ucx_shm_posix_312b8629) failed: No such file or directory
[1725067366.020126] [cluster-256-hpc-256:73209:0]        mm_posix.c:291  UCX  ERROR shm_unlink(/ucx_shm_posix_55f85cc0) failed: No such file or directory
[1725067366.020522] [cluster-256-hpc-256:73209:0]        mm_posix.c:291  UCX  ERROR shm_unlink(/ucx_shm_posix_2b8d9ce5) failed: No such file or directory
[1725067366.020222] [cluster-256-hpc-256:73219:0]        mm_posix.c:291  UCX  ERROR shm_unlink(/ucx_shm_posix_1760f85b) failed: No such file or directory
[1725067366.020648] [cluster-256-hpc-256:73219:0]        mm_posix.c:291  UCX  ERROR shm_unlink(/ucx_shm_posix_7af3ded9) failed: No such file or directory
[1725067366.020387] [cluster-256-hpc-256:73274:0]        mm_posix.c:291  UCX  ERROR shm_unlink(/ucx_shm_posix_7c8f9836) failed: No such file or directory
[1725067366.020784] [cluster-256-hpc-256:73274:0]        mm_posix.c:291  UCX  ERROR shm_unlink(/ucx_shm_posix_1cc8aa6e) failed: No such file or directory
[1725067366.020288] [cluster-256-hpc-256:73252:0]        mm_posix.c:291  UCX  ERROR shm_unlink(/ucx_shm_posix_2157eed7) failed: No such file or directory
[1725067366.020810] [cluster-256-hpc-256:73252:0]        mm_posix.c:291  UCX  ERROR shm_unlink(/ucx_shm_posix_7fd60fde) failed: No such file or directory
[1725067366.020443] [cluster-256-hpc-256:73282:0]        mm_posix.c:291  UCX  ERROR shm_unlink(/ucx_shm_posix_b80a9) failed: No such file or directory
[1725067366.020725] [cluster-256-hpc-256:73282:0]        mm_posix.c:291  UCX  ERROR shm_unlink(/ucx_shm_posix_14533ed) failed: No such file or directory
[1725067366.020345] [cluster-256-hpc-256:73346:0]        mm_posix.c:291  UCX  ERROR shm_unlink(/ucx_shm_posix_5782a69e) failed: No such file or directory
[1725067366.020714] [cluster-256-hpc-256:73346:0]        mm_posix.c:291  UCX  ERROR shm_unlink(/ucx_shm_posix_7feac19e) failed: No such file or directory
[1725067366.020634] [cluster-256-hpc-256:73382:0]        mm_posix.c:291  UCX  ERROR shm_unlink(/ucx_shm_posix_9f77caf) failed: No such file or directory
[1725067366.020815] [cluster-256-hpc-256:73382:0]        mm_posix.c:291  UCX  ERROR shm_unlink(/ucx_shm_posix_27d25dd1) failed: No such file or directory
[1725067366.020585] [cluster-256-hpc-256:73283:0]        mm_posix.c:291  UCX  ERROR shm_unlink(/ucx_shm_posix_73dfc781) failed: No such file or directory
[1725067366.020812] [cluster-256-hpc-256:73283:0]        mm_posix.c:291  UCX  ERROR shm_unlink(/ucx_shm_posix_dd68939) failed: No such file or directory
[1725067366.020330] [cluster-256-hpc-256:73366:0]        mm_posix.c:291  UCX  ERROR shm_unlink(/ucx_shm_posix_57061488) failed: No such file or directory
[1725067366.020709] [cluster-256-hpc-256:73366:0]        mm_posix.c:291  UCX  ERROR shm_unlink(/ucx_shm_posix_6d28c2d5) failed: No such file or directory
[1725067366.020198] [cluster-256-hpc-256:73415:0]        mm_posix.c:291  UCX  ERROR shm_unlink(/ucx_shm_posix_2ab78af5) failed: No such file or directory
[1725067366.020553] [cluster-256-hpc-256:73415:0]        mm_posix.c:291  UCX  ERROR shm_unlink(/ucx_shm_posix_43822700) failed: No such file or directory
[1725067366.020725] [cluster-256-hpc-256:73438:0]        mm_posix.c:291  UCX  ERROR shm_unlink(/ucx_shm_posix_77a9592d) failed: No such file or directory
[1725067366.020822] [cluster-256-hpc-256:73438:0]        mm_posix.c:291  UCX  ERROR shm_unlink(/ucx_shm_posix_37203f9f) failed: No such file or directory
[1725067366.020278] [cluster-256-hpc-256:73402:0]        mm_posix.c:291  UCX  ERROR shm_unlink(/ucx_shm_posix_5240c4e1) failed: No such file or directory
[1725067366.020750] [cluster-256-hpc-256:73402:0]        mm_posix.c:291  UCX  ERROR shm_unlink(/ucx_shm_posix_34d1cfcd) failed: No such file or directory
[1725067366.020780] [cluster-256-hpc-256:73497:0]        mm_posix.c:291  UCX  ERROR shm_unlink(/ucx_shm_posix_353c4e3) failed: No such file or directory
[1725067366.020171] [cluster-256-hpc-256:70997:0]        mm_posix.c:291  UCX  ERROR shm_unlink(/ucx_shm_posix_48496e9) failed: No such file or directory
[1725067366.020501] [cluster-256-hpc-256:70997:0]        mm_posix.c:291  UCX  ERROR shm_unlink(/ucx_shm_posix_78e43495) failed: No such file or directory
[1725067366.020080] [cluster-256-hpc-256:71010:0]        mm_posix.c:291  UCX  ERROR shm_unlink(/ucx_shm_posix_74c7c25a) failed: No such file or directory
[1725067366.020321] [cluster-256-hpc-256:71010:0]        mm_posix.c:291  UCX  ERROR shm_unlink(/ucx_shm_posix_431fa571) failed: No such file or directory
[1725067366.020697] [cluster-256-hpc-256:71020:0]        mm_posix.c:291  UCX  ERROR shm_unlink(/ucx_shm_posix_2c30b68a) failed: No such file or directory
[1725067366.020820] [cluster-256-hpc-256:71020:0]        mm_posix.c:291  UCX  ERROR shm_unlink(/ucx_shm_posix_3fff458e) failed: No such file or directory
[1725067366.020044] [cluster-256-hpc-256:71019:0]        mm_posix.c:291  UCX  ERROR shm_unlink(/ucx_shm_posix_5cf91726) failed: No such file or directory
[1725067366.020710] [cluster-256-hpc-256:71019:0]        mm_posix.c:291  UCX  ERROR shm_unlink(/ucx_shm_posix_a6e1bfd) failed: No such file or directory
[1725067366.020200] [cluster-256-hpc-256:71029:0]        mm_posix.c:291  UCX  ERROR shm_unlink(/ucx_shm_posix_124609fd) failed: No such file or directory
[1725067366.020592] [cluster-256-hpc-256:71029:0]        mm_posix.c:291  UCX  ERROR shm_unlink(/ucx_shm_posix_1f81c8d6) failed: No such file or directory
[1725067366.020674] [cluster-256-hpc-256:71036:0]        mm_posix.c:291  UCX  ERROR shm_unlink(/ucx_shm_posix_428bdb7e) failed: No such file or directory
[1725067366.020878] [cluster-256-hpc-256:71036:0]        mm_posix.c:291  UCX  ERROR shm_unlink(/ucx_shm_posix_5776942f) failed: No such file or directory
[1725067366.020241] [cluster-256-hpc-256:71078:0]        mm_posix.c:291  UCX  ERROR shm_unlink(/ucx_shm_posix_6eb4a66) failed: No such file or directory
[1725067366.020818] [cluster-256-hpc-256:71078:0]        mm_posix.c:291  UCX  ERROR shm_unlink(/ucx_shm_posix_5976207) failed: No such file or directory
[1725067366.020082] [cluster-256-hpc-256:71079:0]        mm_posix.c:291  UCX  ERROR shm_unlink(/ucx_shm_posix_4c209ab) failed: No such file or directory
[1725067366.020496] [cluster-256-hpc-256:71079:0]        mm_posix.c:291  UCX  ERROR shm_unlink(/ucx_shm_posix_31a5e273) failed: No such file or directory
[1725067366.020215] [cluster-256-hpc-256:71300:0]        mm_posix.c:291  UCX  ERROR shm_unlink(/ucx_shm_posix_7c0f0e5d) failed: No such file or directory
[1725067366.020528] [cluster-256-hpc-256:71300:0]        mm_posix.c:291  UCX  ERROR shm_unlink(/ucx_shm_posix_6f1af771) failed: No such file or directory
[1725067366.020416] [cluster-256-hpc-256:71297:0]        mm_posix.c:291  UCX  ERROR shm_unlink(/ucx_shm_posix_4a6cb698) failed: No such file or directory
[1725067366.020801] [cluster-256-hpc-256:71297:0]        mm_posix.c:291  UCX  ERROR shm_unlink(/ucx_shm_posix_49ebdb50) failed: No such file or directory
[1725067366.020052] [cluster-256-hpc-256:71277:0]        mm_posix.c:291  UCX  ERROR shm_unlink(/ucx_shm_posix_3cd46915) failed: No such file or directory
[1725067366.020381] [cluster-256-hpc-256:71277:0]        mm_posix.c:291  UCX  ERROR shm_unlink(/ucx_shm_posix_4e3d67ef) failed: No such file or directory
[1725067366.020154] [cluster-256-hpc-256:71324:0]        mm_posix.c:291  UCX  ERROR shm_unlink(/ucx_shm_posix_3851265b) failed: No such file or directory
[1725067366.020737] [cluster-256-hpc-256:71324:0]        mm_posix.c:291  UCX  ERROR shm_unlink(/ucx_shm_posix_6b598dc5) failed: No such file or directory
[1725067366.020411] [cluster-256-hpc-256:71477:0]        mm_posix.c:291  UCX  ERROR shm_unlink(/ucx_shm_posix_49031c10) failed: No such file or directory
[1725067366.020792] [cluster-256-hpc-256:71477:0]        mm_posix.c:291  UCX  ERROR shm_unlink(/ucx_shm_posix_4e6592f5) failed: No such file or directory
[1725067366.020352] [cluster-256-hpc-256:71370:0]        mm_posix.c:291  UCX  ERROR shm_unlink(/ucx_shm_posix_4b5740f) failed: No such file or directory
[1725067366.020795] [cluster-256-hpc-256:71370:0]        mm_posix.c:291  UCX  ERROR shm_unlink(/ucx_shm_posix_ae1bf0d) failed: No such file or directory
[1725067366.020242] [cluster-256-hpc-256:71442:0]        mm_posix.c:291  UCX  ERROR shm_unlink(/ucx_shm_posix_58a6c31c) failed: No such file or directory
[1725067366.020711] [cluster-256-hpc-256:71442:0]        mm_posix.c:291  UCX  ERROR shm_unlink(/ucx_shm_posix_6e3cfdf8) failed: No such file or directory
[1725067366.020397] [cluster-256-hpc-256:71475:0]        mm_posix.c:291  UCX  ERROR shm_unlink(/ucx_shm_posix_128606c7) failed: No such file or directory
[1725067366.020730] [cluster-256-hpc-256:71475:0]        mm_posix.c:291  UCX  ERROR shm_unlink(/ucx_shm_posix_6be3a267) failed: No such file or directory
[1725067366.020265] [cluster-256-hpc-256:71538:0]        mm_posix.c:291  UCX  ERROR shm_unlink(/ucx_shm_posix_b242edc) failed: No such file or directory
[1725067366.020775] [cluster-256-hpc-256:71538:0]        mm_posix.c:291  UCX  ERROR shm_unlink(/ucx_shm_posix_11361fbf) failed: No such file or directory
[1725067366.020142] [cluster-256-hpc-256:71470:0]        mm_posix.c:291  UCX  ERROR shm_unlink(/ucx_shm_posix_77c39d7e) failed: No such file or directory
[1725067366.020336] [cluster-256-hpc-256:71470:0]        mm_posix.c:291  UCX  ERROR shm_unlink(/ucx_shm_posix_1732db9d) failed: No such file or directory
[1725067366.020305] [cluster-256-hpc-256:71505:0]        mm_posix.c:291  UCX  ERROR shm_unlink(/ucx_shm_posix_39b4d5a5) failed: No such file or directory
[1725067366.020691] [cluster-256-hpc-256:71505:0]        mm_posix.c:291  UCX  ERROR shm_unlink(/ucx_shm_posix_3669861) failed: No such file or directory
[1725067366.020037] [cluster-256-hpc-256:71647:0]        mm_posix.c:291  UCX  ERROR shm_unlink(/ucx_shm_posix_7db1cd5f) failed: No such file or directory
[1725067366.020269] [cluster-256-hpc-256:71647:0]        mm_posix.c:291  UCX  ERROR shm_unlink(/ucx_shm_posix_37f9983e) failed: No such file or directory
[1725067366.020315] [cluster-256-hpc-256:71635:0]        mm_posix.c:291  UCX  ERROR shm_unlink(/ucx_shm_posix_2455e9b7) failed: No such file or directory
[1725067366.020779] [cluster-256-hpc-256:71635:0]        mm_posix.c:291  UCX  ERROR shm_unlink(/ucx_shm_posix_916573d) failed: No such file or directory
[1725067366.020302] [cluster-256-hpc-256:71572:0]        mm_posix.c:291  UCX  ERROR shm_unlink(/ucx_shm_posix_629c793e) failed: No such file or directory
[1725067366.020775] [cluster-256-hpc-256:71572:0]        mm_posix.c:291  UCX  ERROR shm_unlink(/ucx_shm_posix_3c8fb94d) failed: No such file or directory
[1725067366.020364] [cluster-256-hpc-256:71643:0]        mm_posix.c:291  UCX  ERROR shm_unlink(/ucx_shm_posix_18f86c6) failed: No such file or directory
[1725067366.020710] [cluster-256-hpc-256:71643:0]        mm_posix.c:291  UCX  ERROR shm_unlink(/ucx_shm_posix_65b7fd3b) failed: No such file or directory
[1725067366.020362] [cluster-256-hpc-256:71723:0]        mm_posix.c:291  UCX  ERROR shm_unlink(/ucx_shm_posix_1a149623) failed: No such file or directory
[1725067366.020722] [cluster-256-hpc-256:71723:0]        mm_posix.c:291  UCX  ERROR shm_unlink(/ucx_shm_posix_599b7c94) failed: No such file or directory
[1725067366.020258] [cluster-256-hpc-256:71769:0]        mm_posix.c:291  UCX  ERROR shm_unlink(/ucx_shm_posix_57addc6b) failed: No such file or directory
[1725067366.020735] [cluster-256-hpc-256:71769:0]        mm_posix.c:291  UCX  ERROR shm_unlink(/ucx_shm_posix_3892eaf8) failed: No such file or directory
[1725067366.020458] [cluster-256-hpc-256:71689:0]        mm_posix.c:291  UCX  ERROR shm_unlink(/ucx_shm_posix_3b27db4a) failed: No such file or directory
[1725067366.020805] [cluster-256-hpc-256:71689:0]        mm_posix.c:291  UCX  ERROR shm_unlink(/ucx_shm_posix_8bdb971) failed: No such file or directory
[1725067366.020037] [cluster-256-hpc-256:71773:0]        mm_posix.c:291  UCX  ERROR shm_unlink(/ucx_shm_posix_255b438b) failed: No such file or directory
[1725067366.020259] [cluster-256-hpc-256:71773:0]        mm_posix.c:291  UCX  ERROR shm_unlink(/ucx_shm_posix_61d117a8) failed: No such file or directory
[1725067366.020254] [cluster-256-hpc-256:71818:0]        mm_posix.c:291  UCX  ERROR shm_unlink(/ucx_shm_posix_1bf55a0) failed: No such file or directory
[1725067366.020750] [cluster-256-hpc-256:71818:0]        mm_posix.c:291  UCX  ERROR shm_unlink(/ucx_shm_posix_73715faa) failed: No such file or directory
[1725067366.020141] [cluster-256-hpc-256:71736:0]        mm_posix.c:291  UCX  ERROR shm_unlink(/ucx_shm_posix_35d47cb4) failed: No such file or directory
[1725067366.020407] [cluster-256-hpc-256:71736:0]        mm_posix.c:291  UCX  ERROR shm_unlink(/ucx_shm_posix_61fc36bf) failed: No such file or directory
[1725067366.020330] [cluster-256-hpc-256:71802:0]        mm_posix.c:291  UCX  ERROR shm_unlink(/ucx_shm_posix_3881c1a7) failed: No such file or directory
[1725067366.020670] [cluster-256-hpc-256:71802:0]        mm_posix.c:291  UCX  ERROR shm_unlink(/ucx_shm_posix_5cb94165) failed: No such file or directory
[1725067366.020449] [cluster-256-hpc-256:71860:0]        mm_posix.c:291  UCX  ERROR shm_unlink(/ucx_shm_posix_6b01d4fd) failed: No such file or directory
[1725067366.020749] [cluster-256-hpc-256:71860:0]        mm_posix.c:291  UCX  ERROR shm_unlink(/ucx_shm_posix_19a0b4de) failed: No such file or directory
[1725067366.020370] [cluster-256-hpc-256:71896:0]        mm_posix.c:291  UCX  ERROR shm_unlink(/ucx_shm_posix_374d1881) failed: No such file or directory
[1725067366.020780] [cluster-256-hpc-256:71896:0]        mm_posix.c:291  UCX  ERROR shm_unlink(/ucx_shm_posix_1d513aa0) failed: No such file or directory
[1725067366.020154] [cluster-256-hpc-256:71809:0]        mm_posix.c:291  UCX  ERROR shm_unlink(/ucx_shm_posix_5b8ec6e8) failed: No such file or directory
[1725067366.020364] [cluster-256-hpc-256:71809:0]        mm_posix.c:291  UCX  ERROR shm_unlink(/ucx_shm_posix_8aaa728) failed: No such file or directory
[1725067366.020189] [cluster-256-hpc-256:71861:0]        mm_posix.c:291  UCX  ERROR shm_unlink(/ucx_shm_posix_10bacc71) failed: No such file or directory
[1725067366.020625] [cluster-256-hpc-256:71861:0]        mm_posix.c:291  UCX  ERROR shm_unlink(/ucx_shm_posix_7924ff47) failed: No such file or directory
[1725067366.020119] [cluster-256-hpc-256:71918:0]        mm_posix.c:291  UCX  ERROR shm_unlink(/ucx_shm_posix_6c5cb70d) failed: No such file or directory
[1725067366.020696] [cluster-256-hpc-256:71918:0]        mm_posix.c:291  UCX  ERROR shm_unlink(/ucx_shm_posix_3b9feef0) failed: No such file or directory
[1725067366.020074] [cluster-256-hpc-256:72086:0]        mm_posix.c:291  UCX  ERROR shm_unlink(/ucx_shm_posix_4750b444) failed: No such file or directory
[1725067366.020327] [cluster-256-hpc-256:72086:0]        mm_posix.c:291  UCX  ERROR shm_unlink(/ucx_shm_posix_3b50c38c) failed: No such file or directory
[1725067366.020309] [cluster-256-hpc-256:72082:0]        mm_posix.c:291  UCX  ERROR shm_unlink(/ucx_shm_posix_11bbb1f3) failed: No such file or directory
[1725067366.020780] [cluster-256-hpc-256:72082:0]        mm_posix.c:291  UCX  ERROR shm_unlink(/ucx_shm_posix_4bd92eb6) failed: No such file or directory
[1725067366.020348] [cluster-256-hpc-256:72133:0]        mm_posix.c:291  UCX  ERROR shm_unlink(/ucx_shm_posix_78ea30de) failed: No such file or directory
[1725067366.020415] [cluster-256-hpc-256:72133:0]        mm_posix.c:291  UCX  ERROR shm_unlink(/ucx_shm_posix_e419d3e) failed: No such file or directory
[1725067366.020316] [cluster-256-hpc-256:72152:0]        mm_posix.c:291  UCX  ERROR shm_unlink(/ucx_shm_posix_575a095) failed: No such file or directory
[1725067366.020776] [cluster-256-hpc-256:72152:0]        mm_posix.c:291  UCX  ERROR shm_unlink(/ucx_shm_posix_64937fd7) failed: No such file or directory
[1725067366.020888] [cluster-256-hpc-256:71320:0]        mm_posix.c:291  UCX  ERROR shm_unlink(/ucx_shm_posix_2d543250) failed: No such file or directory
[1725067366.020964] [cluster-256-hpc-256:71320:0]        mm_posix.c:291  UCX  ERROR shm_unlink(/ucx_shm_posix_1c22df62) failed: No such file or directory
[1725067366.021178] [cluster-256-hpc-256:71701:0]        mm_posix.c:291  UCX  ERROR shm_unlink(/ucx_shm_posix_3f408ef0) failed: No such file or directory
[1725067366.021212] [cluster-256-hpc-256:72836:0]        mm_posix.c:291  UCX  ERROR shm_unlink(/ucx_shm_posix_de7196) failed: No such file or directory
[1725067366.108455] [cluster-256-hpc-256:71010:0]        mm_posix.c:291  UCX  ERROR shm_unlink(/ucx_shm_posix_20fd299) failed: No such file or directory
[1725067366.108634] [cluster-256-hpc-256:71470:0]        mm_posix.c:291  UCX  ERROR shm_unlink(/ucx_shm_posix_5576e173) failed: No such file or directory
[1725067366.108707] [cluster-256-hpc-256:71470:0]        mm_posix.c:291  UCX  ERROR shm_unlink(/ucx_shm_posix_2da84ee) failed: No such file or directory
[1725067366.108786] [cluster-256-hpc-256:72193:0]        mm_posix.c:291  UCX  ERROR shm_unlink(/ucx_shm_posix_62134cf0) failed: No such file or directory
[1725067366.108853] [cluster-256-hpc-256:72193:0]        mm_posix.c:291  UCX  ERROR shm_unlink(/ucx_shm_posix_45f61b08) failed: No such file or directory
[1725067366.109012] [cluster-256-hpc-256:72896:0]        mm_posix.c:291  UCX  ERROR shm_unlink(/ucx_shm_posix_7f7cd49f) failed: No such file or directory
[1725067366.109087] [cluster-256-hpc-256:72896:0]        mm_posix.c:291  UCX  ERROR shm_unlink(/ucx_shm_posix_2c5fcc97) failed: No such file or directory
[1725067366.109332] [cluster-256-hpc-256:71010:0]        mm_posix.c:291  UCX  ERROR shm_unlink(/ucx_shm_posix_74cbe90b) failed: No such file or directory
[1725067366.109487] [cluster-256-hpc-256:72281:0]        mm_posix.c:291  UCX  ERROR shm_unlink(/ucx_shm_posix_1ea1e895) failed: No such file or directory
[1725067366.109614] [cluster-256-hpc-256:72281:0]        mm_posix.c:291  UCX  ERROR shm_unlink(/ucx_shm_posix_4c8d8721) failed: No such file or directory
[1725067366.109673] [cluster-256-hpc-256:71773:0]        mm_posix.c:291  UCX  ERROR shm_unlink(/ucx_shm_posix_3ba812b6) failed: No such file or directory
[1725067366.109766] [cluster-256-hpc-256:71773:0]        mm_posix.c:291  UCX  ERROR shm_unlink(/ucx_shm_posix_68c9d92a) failed: No such file or directory
[1725067366.109814] [cluster-256-hpc-256:73382:0]        mm_posix.c:291  UCX  ERROR shm_unlink(/ucx_shm_posix_2b32d777) failed: No such file or directory
[1725067366.109798] [cluster-256-hpc-256:71277:0]        mm_posix.c:291  UCX  ERROR shm_unlink(/ucx_shm_posix_118c98fb) failed: No such file or directory
[1725067366.109883] [cluster-256-hpc-256:71277:0]        mm_posix.c:291  UCX  ERROR shm_unlink(/ucx_shm_posix_40ad19a5) failed: No such file or directory
[1725067366.109907] [cluster-256-hpc-256:71647:0]        mm_posix.c:291  UCX  ERROR shm_unlink(/ucx_shm_posix_775c2eb0) failed: No such file or directory
[1725067366.109912] [cluster-256-hpc-256:73382:0]        mm_posix.c:291  UCX  ERROR shm_unlink(/ucx_shm_posix_2fd1fd08) failed: No such file or directory
[1725067366.110011] [cluster-256-hpc-256:71647:0]        mm_posix.c:291  UCX  ERROR shm_unlink(/ucx_shm_posix_35c6a737) failed: No such file or directory
[1725067366.110218] [cluster-256-hpc-256:72133:0]        mm_posix.c:291  UCX  ERROR shm_unlink(/ucx_shm_posix_52ef54a1) failed: No such file or directory
[1725067366.110230] [cluster-256-hpc-256:72265:0]        mm_posix.c:291  UCX  ERROR shm_unlink(/ucx_shm_posix_71930874) failed: No such file or directory
[1725067366.110310] [cluster-256-hpc-256:72265:0]        mm_posix.c:291  UCX  ERROR shm_unlink(/ucx_shm_posix_29173e1d) failed: No such file or directory
[1725067366.110303] [cluster-256-hpc-256:72133:0]        mm_posix.c:291  UCX  ERROR shm_unlink(/ucx_shm_posix_4501e256) failed: No such file or directory
[1725067366.110376] [cluster-256-hpc-256:72378:0]        mm_posix.c:291  UCX  ERROR shm_unlink(/ucx_shm_posix_7077fd2f) failed: No such file or directory
[1725067366.110453] [cluster-256-hpc-256:72378:0]        mm_posix.c:291  UCX  ERROR shm_unlink(/ucx_shm_posix_7317f3fe) failed: No such file or directory
[1725067366.110567] [cluster-256-hpc-256:73152:0]        mm_posix.c:291  UCX  ERROR shm_unlink(/ucx_shm_posix_3dcc25cb) failed: No such file or directory
[1725067366.110468] [cluster-256-hpc-256:71029:0]        mm_posix.c:291  UCX  ERROR shm_unlink(/ucx_shm_posix_3a40d89a) failed: No such file or directory
[1725067366.110544] [cluster-256-hpc-256:71029:0]        mm_posix.c:291  UCX  ERROR shm_unlink(/ucx_shm_posix_749e1520) failed: No such file or directory
[1725067366.110487] [cluster-256-hpc-256:71079:0]        mm_posix.c:291  UCX  ERROR shm_unlink(/ucx_shm_posix_6000efa4) failed: No such file or directory
[1725067366.110576] [cluster-256-hpc-256:71079:0]        mm_posix.c:291  UCX  ERROR shm_unlink(/ucx_shm_posix_237bad42) failed: No such file or directory
[1725067366.110511] [cluster-256-hpc-256:71896:0]        mm_posix.c:291  UCX  ERROR shm_unlink(/ucx_shm_posix_16609a59) failed: No such file or directory
[1725067366.110592] [cluster-256-hpc-256:71896:0]        mm_posix.c:291  UCX  ERROR shm_unlink(/ucx_shm_posix_331610d1) failed: No such file or directory
[1725067366.110641] [cluster-256-hpc-256:73152:0]        mm_posix.c:291  UCX  ERROR shm_unlink(/ucx_shm_posix_3b272b4b) failed: No such file or directory
[1725067366.110757] [cluster-256-hpc-256:73470:0]        mm_posix.c:291  UCX  ERROR shm_unlink(/ucx_shm_posix_468c6883) failed: No such file or directory
[1725067366.110729] [cluster-256-hpc-256:71300:0]        mm_posix.c:291  UCX  ERROR shm_unlink(/ucx_shm_posix_6ec2a220) failed: No such file or directory
[1725067366.110791] [cluster-256-hpc-256:71300:0]        mm_posix.c:291  UCX  ERROR shm_unlink(/ucx_shm_posix_65340182) failed: No such file or directory
[1725067366.110815] [cluster-256-hpc-256:71769:0]        mm_posix.c:291  UCX  ERROR shm_unlink(/ucx_shm_posix_17d0ea3b) failed: No such file or directory
[1725067366.110894] [cluster-256-hpc-256:71769:0]        mm_posix.c:291  UCX  ERROR shm_unlink(/ucx_shm_posix_597cad65) failed: No such file or directory
[1725067366.110797] [cluster-256-hpc-256:72640:0]        mm_posix.c:291  UCX  ERROR shm_unlink(/ucx_shm_posix_1875e641) failed: No such file or directory
[1725067366.110889] [cluster-256-hpc-256:72640:0]        mm_posix.c:291  UCX  ERROR shm_unlink(/ucx_shm_posix_2924d0c5) failed: No such file or directory
[1725067366.110845] [cluster-256-hpc-256:73470:0]        mm_posix.c:291  UCX  ERROR shm_unlink(/ucx_shm_posix_2179b8fa) failed: No such file or directory
[1725067366.110931] [cluster-256-hpc-256:72200:0]        mm_posix.c:291  UCX  ERROR shm_unlink(/ucx_shm_posix_153efccf) failed: No such file or directory
[1725067366.111009] [cluster-256-hpc-256:72200:0]        mm_posix.c:291  UCX  ERROR shm_unlink(/ucx_shm_posix_3cd6f17f) failed: No such file or directory
[1725067366.111022] [cluster-256-hpc-256:71861:0]        mm_posix.c:291  UCX  ERROR shm_unlink(/ucx_shm_posix_4015c80e) failed: No such file or directory
[1725067366.111012] [cluster-256-hpc-256:71918:0]        mm_posix.c:291  UCX  ERROR shm_unlink(/ucx_shm_posix_5e4f68e1) failed: No such file or directory
[1725067366.111075] [cluster-256-hpc-256:71918:0]        mm_posix.c:291  UCX  ERROR shm_unlink(/ucx_shm_posix_60963b19) failed: No such file or directory
[1725067366.111008] [cluster-256-hpc-256:72915:0]        mm_posix.c:291  UCX  ERROR shm_unlink(/ucx_shm_posix_38edd2df) failed: No such file or directory
[1725067366.111106] [cluster-256-hpc-256:71861:0]        mm_posix.c:291  UCX  ERROR shm_unlink(/ucx_shm_posix_1bae9ab0) failed: No such file or directory
[1725067366.111086] [cluster-256-hpc-256:72096:0]        mm_posix.c:291  UCX  ERROR shm_unlink(/ucx_shm_posix_57f3ca79) failed: No such file or directory
[1725067366.111098] [cluster-256-hpc-256:73219:0]        mm_posix.c:291  UCX  ERROR shm_unlink(/ucx_shm_posix_2ed013b) failed: No such file or directory
[1725067366.111094] [cluster-256-hpc-256:72915:0]        mm_posix.c:291  UCX  ERROR shm_unlink(/ucx_shm_posix_1172cbfc) failed: No such file or directory
[1725067366.111180] [cluster-256-hpc-256:73497:0]        mm_posix.c:291  UCX  ERROR shm_unlink(/ucx_shm_posix_2c1b2cc) failed: No such file or directory
[1725067366.111279] [cluster-256-hpc-256:73497:0]        mm_posix.c:291  UCX  ERROR shm_unlink(/ucx_shm_posix_3ce76066) failed: No such file or directory
[1725067366.111242] [cluster-256-hpc-256:71572:0]        mm_posix.c:291  UCX  ERROR shm_unlink(/ucx_shm_posix_18c0ecf2) failed: No such file or directory
[1725067366.111178] [cluster-256-hpc-256:73219:0]        mm_posix.c:291  UCX  ERROR shm_unlink(/ucx_shm_posix_3db2ad5f) failed: No such file or directory
[1725067366.111192] [cluster-256-hpc-256:72360:0]        mm_posix.c:291  UCX  ERROR shm_unlink(/ucx_shm_posix_7499e7c9) failed: No such file or directory
[1725067366.111306] [cluster-256-hpc-256:72360:0]        mm_posix.c:291  UCX  ERROR shm_unlink(/ucx_shm_posix_15f49154) failed: No such file or directory
[1725067366.111248] [cluster-256-hpc-256:73089:0]        mm_posix.c:291  UCX  ERROR shm_unlink(/ucx_shm_posix_6bdfbf55) failed: No such file or directory
[1725067366.111226] [cluster-256-hpc-256:72096:0]        mm_posix.c:291  UCX  ERROR shm_unlink(/ucx_shm_posix_1d82b7c6) failed: No such file or directory
[1725067366.111448] [cluster-256-hpc-256:73366:0]        mm_posix.c:291  UCX  ERROR shm_unlink(/ucx_shm_posix_6a1a73f0) failed: No such file or directory
[1725067366.111332] [cluster-256-hpc-256:73474:0]        mm_posix.c:291  UCX  ERROR shm_unlink(/ucx_shm_posix_1a511e51) failed: No such file or directory
[1725067366.111388] [cluster-256-hpc-256:73474:0]        mm_posix.c:291  UCX  ERROR shm_unlink(/ucx_shm_posix_4345a4c4) failed: No such file or directory
[1725067366.111481] [cluster-256-hpc-256:73496:0]        mm_posix.c:291  UCX  ERROR shm_unlink(/ucx_shm_posix_281043c8) failed: No such file or directory
[1725067366.111259] [cluster-256-hpc-256:71019:0]        mm_posix.c:291  UCX  ERROR shm_unlink(/ucx_shm_posix_3cb5698d) failed: No such file or directory
[1725067366.111351] [cluster-256-hpc-256:71019:0]        mm_posix.c:291  UCX  ERROR shm_unlink(/ucx_shm_posix_92ce85c) failed: No such file or directory
[1725067366.111302] [cluster-256-hpc-256:71477:0]        mm_posix.c:291  UCX  ERROR shm_unlink(/ucx_shm_posix_331229a0) failed: No such file or directory
[1725067366.111380] [cluster-256-hpc-256:71477:0]        mm_posix.c:291  UCX  ERROR shm_unlink(/ucx_shm_posix_2d0546d8) failed: No such file or directory
[1725067366.111310] [cluster-256-hpc-256:71442:0]        mm_posix.c:291  UCX  ERROR shm_unlink(/ucx_shm_posix_5d54405f) failed: No such file or directory
[1725067366.111392] [cluster-256-hpc-256:71442:0]        mm_posix.c:291  UCX  ERROR shm_unlink(/ucx_shm_posix_2c595ed0) failed: No such file or directory
[1725067366.111350] [cluster-256-hpc-256:71475:0]        mm_posix.c:291  UCX  ERROR shm_unlink(/ucx_shm_posix_230e22e) failed: No such file or directory
[1725067366.111416] [cluster-256-hpc-256:71475:0]        mm_posix.c:291  UCX  ERROR shm_unlink(/ucx_shm_posix_62aaeb2e) failed: No such file or directory
[1725067366.111282] [cluster-256-hpc-256:71643:0]        mm_posix.c:291  UCX  ERROR shm_unlink(/ucx_shm_posix_58db75c2) failed: No such file or directory
[1725067366.111343] [cluster-256-hpc-256:71643:0]        mm_posix.c:291  UCX  ERROR shm_unlink(/ucx_shm_posix_56323b31) failed: No such file or directory
[1725067366.111377] [cluster-256-hpc-256:71572:0]        mm_posix.c:291  UCX  ERROR shm_unlink(/ucx_shm_posix_4a51d06e) failed: No such file or directory
[1725067366.111391] [cluster-256-hpc-256:72531:0]        mm_posix.c:291  UCX  ERROR shm_unlink(/ucx_shm_posix_704da7a4) failed: No such file or directory
[1725067366.111448] [cluster-256-hpc-256:72531:0]        mm_posix.c:291  UCX  ERROR shm_unlink(/ucx_shm_posix_6fec881e) failed: No such file or directory
[1725067366.111435] [cluster-256-hpc-256:72581:0]        mm_posix.c:291  UCX  ERROR shm_unlink(/ucx_shm_posix_33027991) failed: No such file or directory
[1725067366.111513] [cluster-256-hpc-256:72581:0]        mm_posix.c:291  UCX  ERROR shm_unlink(/ucx_shm_posix_70fc4296) failed: No such file or directory
[1725067366.111440] [cluster-256-hpc-256:72706:0]        mm_posix.c:291  UCX  ERROR shm_unlink(/ucx_shm_posix_1815bd06) failed: No such file or directory
[1725067366.111452] [cluster-256-hpc-256:72758:0]        mm_posix.c:291  UCX  ERROR shm_unlink(/ucx_shm_posix_7fc501b0) failed: No such file or directory
[1725067366.111499] [cluster-256-hpc-256:72758:0]        mm_posix.c:291  UCX  ERROR shm_unlink(/ucx_shm_posix_137c4217) failed: No such file or directory
[1725067366.111444] [cluster-256-hpc-256:72983:0]        mm_posix.c:291  UCX  ERROR shm_unlink(/ucx_shm_posix_70235b4) failed: No such file or directory
[1725067366.111510] [cluster-256-hpc-256:72983:0]        mm_posix.c:291  UCX  ERROR shm_unlink(/ucx_shm_posix_61b0bbb0) failed: No such file or directory
[1725067366.111409] [cluster-256-hpc-256:73166:0]        mm_posix.c:291  UCX  ERROR shm_unlink(/ucx_shm_posix_76955d9e) failed: No such file or directory
[1725067366.111543] [cluster-256-hpc-256:73166:0]        mm_posix.c:291  UCX  ERROR shm_unlink(/ucx_shm_posix_70887ed6) failed: No such file or directory
[1725067366.111338] [cluster-256-hpc-256:73209:0]        mm_posix.c:291  UCX  ERROR shm_unlink(/ucx_shm_posix_50ae46b5) failed: No such file or directory
[1725067366.111409] [cluster-256-hpc-256:73209:0]        mm_posix.c:291  UCX  ERROR shm_unlink(/ucx_shm_posix_5ef4d9df) failed: No such file or directory
[1725067366.111381] [cluster-256-hpc-256:73089:0]        mm_posix.c:291  UCX  ERROR shm_unlink(/ucx_shm_posix_77ff8cd0) failed: No such file or directory
[1725067366.111552] [cluster-256-hpc-256:72296:0]        mm_posix.c:291  UCX  ERROR shm_unlink(/ucx_shm_posix_2ed81df3) failed: No such file or directory
[1725067366.111627] [cluster-256-hpc-256:72296:0]        mm_posix.c:291  UCX  ERROR shm_unlink(/ucx_shm_posix_6fa8a731) failed: No such file or directory
[1725067366.111720] [cluster-256-hpc-256:72312:0]        mm_posix.c:291  UCX  ERROR shm_unlink(/ucx_shm_posix_33ef4b2b) failed: No such file or directory
[1725067366.111653] [cluster-256-hpc-256:72462:0]        mm_posix.c:291  UCX  ERROR shm_unlink(/ucx_shm_posix_4df62f9d) failed: No such file or directory
[1725067366.111754] [cluster-256-hpc-256:72462:0]        mm_posix.c:291  UCX  ERROR shm_unlink(/ucx_shm_posix_3c3be577) failed: No such file or directory
[1725067366.111570] [cluster-256-hpc-256:72584:0]        mm_posix.c:291  UCX  ERROR shm_unlink(/ucx_shm_posix_439c6c34) failed: No such file or directory
[1725067366.111647] [cluster-256-hpc-256:72584:0]        mm_posix.c:291  UCX  ERROR shm_unlink(/ucx_shm_posix_24eec34) failed: No such file or directory
[1725067366.111640] [cluster-256-hpc-256:72648:0]        mm_posix.c:291  UCX  ERROR shm_unlink(/ucx_shm_posix_121c4ebc) failed: No such file or directory
[1725067366.111738] [cluster-256-hpc-256:72648:0]        mm_posix.c:291  UCX  ERROR shm_unlink(/ucx_shm_posix_4d05096c) failed: No such file or directory
[1725067366.111595] [cluster-256-hpc-256:71701:0]        mm_posix.c:291  UCX  ERROR shm_unlink(/ucx_shm_posix_d96ea00) failed: No such file or directory
[1725067366.111661] [cluster-256-hpc-256:71701:0]        mm_posix.c:291  UCX  ERROR shm_unlink(/ucx_shm_posix_4e6eb6cd) failed: No such file or directory
[1725067366.111479] [cluster-256-hpc-256:72902:0]        mm_posix.c:291  UCX  ERROR shm_unlink(/ucx_shm_posix_6c48122d) failed: No such file or directory
[1725067366.111544] [cluster-256-hpc-256:72902:0]        mm_posix.c:291  UCX  ERROR shm_unlink(/ucx_shm_posix_456e3759) failed: No such file or directory
[1725067366.111503] [cluster-256-hpc-256:73036:0]        mm_posix.c:291  UCX  ERROR shm_unlink(/ucx_shm_posix_12b49ebc) failed: No such file or directory
[1725067366.111585] [cluster-256-hpc-256:73036:0]        mm_posix.c:291  UCX  ERROR shm_unlink(/ucx_shm_posix_223e2695) failed: No such file or directory
[1725067366.111696] [cluster-256-hpc-256:72980:0]        mm_posix.c:291  UCX  ERROR shm_unlink(/ucx_shm_posix_436f529) failed: No such file or directory
[1725067366.111780] [cluster-256-hpc-256:72980:0]        mm_posix.c:291  UCX  ERROR shm_unlink(/ucx_shm_posix_56aabee4) failed: No such file or directory
[1725067366.111639] [cluster-256-hpc-256:73081:0]        mm_posix.c:291  UCX  ERROR shm_unlink(/ucx_shm_posix_48e73f3) failed: No such file or directory
[1725067366.111715] [cluster-256-hpc-256:73081:0]        mm_posix.c:291  UCX  ERROR shm_unlink(/ucx_shm_posix_774346d6) failed: No such file or directory
[1725067366.111758] [cluster-256-hpc-256:73252:0]        mm_posix.c:291  UCX  ERROR shm_unlink(/ucx_shm_posix_2b4ec1bf) failed: No such file or directory
[1725067366.111840] [cluster-256-hpc-256:73252:0]        mm_posix.c:291  UCX  ERROR shm_unlink(/ucx_shm_posix_48c7c1db) failed: No such file or directory
[1725067366.111505] [cluster-256-hpc-256:73282:0]        mm_posix.c:291  UCX  ERROR shm_unlink(/ucx_shm_posix_70118dd) failed: No such file or directory
[1725067366.111558] [cluster-256-hpc-256:73282:0]        mm_posix.c:291  UCX  ERROR shm_unlink(/ucx_shm_posix_71ec9fcc) failed: No such file or directory
[1725067366.111674] [cluster-256-hpc-256:73346:0]        mm_posix.c:291  UCX  ERROR shm_unlink(/ucx_shm_posix_4845581a) failed: No such file or directory
[1725067366.111763] [cluster-256-hpc-256:73346:0]        mm_posix.c:291  UCX  ERROR shm_unlink(/ucx_shm_posix_64a8f58b) failed: No such file or directory
[1725067366.111655] [cluster-256-hpc-256:73415:0]        mm_posix.c:291  UCX  ERROR shm_unlink(/ucx_shm_posix_768c8df8) failed: No such file or directory
[1725067366.111729] [cluster-256-hpc-256:73415:0]        mm_posix.c:291  UCX  ERROR shm_unlink(/ucx_shm_posix_428c19b5) failed: No such file or directory
[1725067366.111619] [cluster-256-hpc-256:72431:0]        mm_posix.c:291  UCX  ERROR shm_unlink(/ucx_shm_posix_449c7df9) failed: No such file or directory
[1725067366.111682] [cluster-256-hpc-256:72431:0]        mm_posix.c:291  UCX  ERROR shm_unlink(/ucx_shm_posix_24cbf48e) failed: No such file or directory
[1725067366.111515] [cluster-256-hpc-256:73366:0]        mm_posix.c:291  UCX  ERROR shm_unlink(/ucx_shm_posix_35c5d002) failed: No such file or directory
[1725067366.111559] [cluster-256-hpc-256:73496:0]        mm_posix.c:291  UCX  ERROR shm_unlink(/ucx_shm_posix_6235f162) failed: No such file or directory
[1725067366.111484] [cluster-256-hpc-256:71297:0]        mm_posix.c:291  UCX  ERROR shm_unlink(/ucx_shm_posix_3592ad92) failed: No such file or directory
[1725067366.111548] [cluster-256-hpc-256:71297:0]        mm_posix.c:291  UCX  ERROR shm_unlink(/ucx_shm_posix_4cc4e4ce) failed: No such file or directory
[1725067366.111526] [cluster-256-hpc-256:71324:0]        mm_posix.c:291  UCX  ERROR shm_unlink(/ucx_shm_posix_204f137b) failed: No such file or directory
[1725067366.111670] [cluster-256-hpc-256:71324:0]        mm_posix.c:291  UCX  ERROR shm_unlink(/ucx_shm_posix_7f73f60f) failed: No such file or directory
[1725067366.111651] [cluster-256-hpc-256:71505:0]        mm_posix.c:291  UCX  ERROR shm_unlink(/ucx_shm_posix_3b7dc4a9) failed: No such file or directory
[1725067366.111705] [cluster-256-hpc-256:71505:0]        mm_posix.c:291  UCX  ERROR shm_unlink(/ucx_shm_posix_6025131a) failed: No such file or directory
[1725067366.111540] [cluster-256-hpc-256:73520:0]        mm_posix.c:291  UCX  ERROR shm_unlink(/ucx_shm_posix_1bc453a) failed: No such file or directory
[1725067366.111620] [cluster-256-hpc-256:73520:0]        mm_posix.c:291  UCX  ERROR shm_unlink(/ucx_shm_posix_71239668) failed: No such file or directory
[1725067366.111442] [cluster-256-hpc-256:71802:0]        mm_posix.c:291  UCX  ERROR shm_unlink(/ucx_shm_posix_63e17c5) failed: No such file or directory
[1725067366.111508] [cluster-256-hpc-256:71802:0]        mm_posix.c:291  UCX  ERROR shm_unlink(/ucx_shm_posix_7029ea89) failed: No such file or directory
[1725067366.111704] [cluster-256-hpc-256:71860:0]        mm_posix.c:291  UCX  ERROR shm_unlink(/ucx_shm_posix_26e89633) failed: No such file or directory
[1725067366.111769] [cluster-256-hpc-256:71860:0]        mm_posix.c:291  UCX  ERROR shm_unlink(/ucx_shm_posix_3890234b) failed: No such file or directory
[1725067366.111813] [cluster-256-hpc-256:71723:0]        mm_posix.c:291  UCX  ERROR shm_unlink(/ucx_shm_posix_6cddf09a) failed: No such file or directory
[1725067366.111861] [cluster-256-hpc-256:71723:0]        mm_posix.c:291  UCX  ERROR shm_unlink(/ucx_shm_posix_64192015) failed: No such file or directory
[1725067366.112000] [cluster-256-hpc-256:71689:0]        mm_posix.c:291  UCX  ERROR shm_unlink(/ucx_shm_posix_618d6c21) failed: No such file or directory
[1725067366.112058] [cluster-256-hpc-256:71689:0]        mm_posix.c:291  UCX  ERROR shm_unlink(/ucx_shm_posix_60efd8) failed: No such file or directory
[1725067366.111845] [cluster-256-hpc-256:71818:0]        mm_posix.c:291  UCX  ERROR shm_unlink(/ucx_shm_posix_262a015d) failed: No such file or directory
[1725067366.111939] [cluster-256-hpc-256:71818:0]        mm_posix.c:291  UCX  ERROR shm_unlink(/ucx_shm_posix_4ee68457) failed: No such file or directory
[1725067366.111949] [cluster-256-hpc-256:71736:0]        mm_posix.c:291  UCX  ERROR shm_unlink(/ucx_shm_posix_2b3f00a0) failed: No such file or directory
[1725067366.112037] [cluster-256-hpc-256:71736:0]        mm_posix.c:291  UCX  ERROR shm_unlink(/ucx_shm_posix_45c42b37) failed: No such file or directory
[1725067366.111883] [cluster-256-hpc-256:71809:0]        mm_posix.c:291  UCX  ERROR shm_unlink(/ucx_shm_posix_10b23914) failed: No such file or directory
[1725067366.111949] [cluster-256-hpc-256:71809:0]        mm_posix.c:291  UCX  ERROR shm_unlink(/ucx_shm_posix_6534444c) failed: No such file or directory
[1725067366.111874] [cluster-256-hpc-256:72082:0]        mm_posix.c:291  UCX  ERROR shm_unlink(/ucx_shm_posix_4aa597b6) failed: No such file or directory
[1725067366.111942] [cluster-256-hpc-256:72082:0]        mm_posix.c:291  UCX  ERROR shm_unlink(/ucx_shm_posix_1505fba0) failed: No such file or directory
[1725067366.111805] [cluster-256-hpc-256:72312:0]        mm_posix.c:291  UCX  ERROR shm_unlink(/ucx_shm_posix_63da187b) failed: No such file or directory
[1725067366.111961] [cluster-256-hpc-256:72523:0]        mm_posix.c:291  UCX  ERROR shm_unlink(/ucx_shm_posix_589ba980) failed: No such file or directory
[1725067366.112032] [cluster-256-hpc-256:72523:0]        mm_posix.c:291  UCX  ERROR shm_unlink(/ucx_shm_posix_8c857d7) failed: No such file or directory
[1725067366.111804] [cluster-256-hpc-256:72832:0]        mm_posix.c:291  UCX  ERROR shm_unlink(/ucx_shm_posix_459ace56) failed: No such file or directory
[1725067366.111874] [cluster-256-hpc-256:72832:0]        mm_posix.c:291  UCX  ERROR shm_unlink(/ucx_shm_posix_4060f4a5) failed: No such file or directory
[1725067366.111991] [cluster-256-hpc-256:72786:0]        mm_posix.c:291  UCX  ERROR shm_unlink(/ucx_shm_posix_7abfafe8) failed: No such file or directory
[1725067366.112052] [cluster-256-hpc-256:72786:0]        mm_posix.c:291  UCX  ERROR shm_unlink(/ucx_shm_posix_32f39fde) failed: No such file or directory
[1725067366.111865] [cluster-256-hpc-256:73077:0]        mm_posix.c:291  UCX  ERROR shm_unlink(/ucx_shm_posix_6b9bbc67) failed: No such file or directory
[1725067366.111945] [cluster-256-hpc-256:73077:0]        mm_posix.c:291  UCX  ERROR shm_unlink(/ucx_shm_posix_44730f18) failed: No such file or directory
[1725067366.111939] [cluster-256-hpc-256:73283:0]        mm_posix.c:291  UCX  ERROR shm_unlink(/ucx_shm_posix_78e47a3f) failed: No such file or directory
[1725067366.112001] [cluster-256-hpc-256:73283:0]        mm_posix.c:291  UCX  ERROR shm_unlink(/ucx_shm_posix_3e9db9a9) failed: No such file or directory
[1725067366.111830] [cluster-256-hpc-256:73402:0]        mm_posix.c:291  UCX  ERROR shm_unlink(/ucx_shm_posix_446dc46) failed: No such file or directory
[1725067366.111920] [cluster-256-hpc-256:73402:0]        mm_posix.c:291  UCX  ERROR shm_unlink(/ucx_shm_posix_56f40ad6) failed: No such file or directory
[1725067366.111788] [cluster-256-hpc-256:70997:0]        mm_posix.c:291  UCX  ERROR shm_unlink(/ucx_shm_posix_2cc9b19a) failed: No such file or directory
[1725067366.111845] [cluster-256-hpc-256:70997:0]        mm_posix.c:291  UCX  ERROR shm_unlink(/ucx_shm_posix_45d31820) failed: No such file or directory
[1725067366.111933] [cluster-256-hpc-256:71020:0]        mm_posix.c:291  UCX  ERROR shm_unlink(/ucx_shm_posix_2c126c81) failed: No such file or directory
[1725067366.111994] [cluster-256-hpc-256:71020:0]        mm_posix.c:291  UCX  ERROR shm_unlink(/ucx_shm_posix_1c6bd57e) failed: No such file or directory
[1725067366.111899] [cluster-256-hpc-256:71078:0]        mm_posix.c:291  UCX  ERROR shm_unlink(/ucx_shm_posix_2475ca2e) failed: No such file or directory
[1725067366.111963] [cluster-256-hpc-256:71078:0]        mm_posix.c:291  UCX  ERROR shm_unlink(/ucx_shm_posix_51066492) failed: No such file or directory
[1725067366.111786] [cluster-256-hpc-256:71370:0]        mm_posix.c:291  UCX  ERROR shm_unlink(/ucx_shm_posix_768b715d) failed: No such file or directory
[1725067366.111850] [cluster-256-hpc-256:71370:0]        mm_posix.c:291  UCX  ERROR shm_unlink(/ucx_shm_posix_34a408dd) failed: No such file or directory
[1725067366.111957] [cluster-256-hpc-256:71635:0]        mm_posix.c:291  UCX  ERROR shm_unlink(/ucx_shm_posix_6debeed6) failed: No such file or directory
[1725067366.112030] [cluster-256-hpc-256:71635:0]        mm_posix.c:291  UCX  ERROR shm_unlink(/ucx_shm_posix_724d3b34) failed: No such file or directory
[1725067366.112332] [cluster-256-hpc-256:72086:0]        mm_posix.c:291  UCX  ERROR shm_unlink(/ucx_shm_posix_2091cac1) failed: No such file or directory
[1725067366.112384] [cluster-256-hpc-256:72086:0]        mm_posix.c:291  UCX  ERROR shm_unlink(/ucx_shm_posix_320a895d) failed: No such file or directory
[1725067366.112301] [cluster-256-hpc-256:71320:0]        mm_posix.c:291  UCX  ERROR shm_unlink(/ucx_shm_posix_137e357a) failed: No such file or directory
[1725067366.112354] [cluster-256-hpc-256:71320:0]        mm_posix.c:291  UCX  ERROR shm_unlink(/ucx_shm_posix_227dd8d4) failed: No such file or directory
[1725067366.112296] [cluster-256-hpc-256:72426:0]        mm_posix.c:291  UCX  ERROR shm_unlink(/ucx_shm_posix_2116f5ae) failed: No such file or directory
[1725067366.112351] [cluster-256-hpc-256:72426:0]        mm_posix.c:291  UCX  ERROR shm_unlink(/ucx_shm_posix_7ff2b3ab) failed: No such file or directory
[1725067366.112354] [cluster-256-hpc-256:72503:0]        mm_posix.c:291  UCX  ERROR shm_unlink(/ucx_shm_posix_17cba0b8) failed: No such file or directory
[1725067366.112410] [cluster-256-hpc-256:72503:0]        mm_posix.c:291  UCX  ERROR shm_unlink(/ucx_shm_posix_6f059dad) failed: No such file or directory
[1725067366.112385] [cluster-256-hpc-256:72627:0]        mm_posix.c:291  UCX  ERROR shm_unlink(/ucx_shm_posix_5b3d1257) failed: No such file or directory
[1725067366.112441] [cluster-256-hpc-256:72627:0]        mm_posix.c:291  UCX  ERROR shm_unlink(/ucx_shm_posix_5004b78d) failed: No such file or directory
[1725067366.112330] [cluster-256-hpc-256:72749:0]        mm_posix.c:291  UCX  ERROR shm_unlink(/ucx_shm_posix_18c01501) failed: No such file or directory
[1725067366.112315] [cluster-256-hpc-256:72963:0]        mm_posix.c:291  UCX  ERROR shm_unlink(/ucx_shm_posix_425ea8f6) failed: No such file or directory
[1725067366.112360] [cluster-256-hpc-256:72963:0]        mm_posix.c:291  UCX  ERROR shm_unlink(/ucx_shm_posix_5e6921d1) failed: No such file or directory
[1725067366.112230] [cluster-256-hpc-256:73274:0]        mm_posix.c:291  UCX  ERROR shm_unlink(/ucx_shm_posix_659cdbb9) failed: No such file or directory
[1725067366.112291] [cluster-256-hpc-256:73274:0]        mm_posix.c:291  UCX  ERROR shm_unlink(/ucx_shm_posix_3bcc40ac) failed: No such file or directory
[1725067366.112357] [cluster-256-hpc-256:73438:0]        mm_posix.c:291  UCX  ERROR shm_unlink(/ucx_shm_posix_d2de256) failed: No such file or directory
[1725067366.112406] [cluster-256-hpc-256:73438:0]        mm_posix.c:291  UCX  ERROR shm_unlink(/ucx_shm_posix_3ccf8f0f) failed: No such file or directory
[1725067366.112293] [cluster-256-hpc-256:72836:0]        mm_posix.c:291  UCX  ERROR shm_unlink(/ucx_shm_posix_7048221f) failed: No such file or directory
[1725067366.112341] [cluster-256-hpc-256:72836:0]        mm_posix.c:291  UCX  ERROR shm_unlink(/ucx_shm_posix_455b5965) failed: No such file or directory
[1725067366.112187] [cluster-256-hpc-256:71036:0]        mm_posix.c:291  UCX  ERROR shm_unlink(/ucx_shm_posix_5f59746c) failed: No such file or directory
[1725067366.112286] [cluster-256-hpc-256:71036:0]        mm_posix.c:291  UCX  ERROR shm_unlink(/ucx_shm_posix_55f25eb9) failed: No such file or directory
[1725067366.112311] [cluster-256-hpc-256:71538:0]        mm_posix.c:291  UCX  ERROR shm_unlink(/ucx_shm_posix_5d6945e6) failed: No such file or directory
[1725067366.112364] [cluster-256-hpc-256:71538:0]        mm_posix.c:291  UCX  ERROR shm_unlink(/ucx_shm_posix_23b6c3ea) failed: No such file or directory
[1725067366.112497] [cluster-256-hpc-256:72706:0]        mm_posix.c:291  UCX  ERROR shm_unlink(/ucx_shm_posix_4e5f9f8e) failed: No such file or directory
[1725067366.112556] [cluster-256-hpc-256:72706:0]        mm_posix.c:291  UCX  ERROR shm_unlink(/ucx_shm_posix_56f1b306) failed: No such file or directory
[1725067366.112396] [cluster-256-hpc-256:72152:0]        mm_posix.c:291  UCX  ERROR shm_unlink(/ucx_shm_posix_30c757cd) failed: No such file or directory
[1725067366.112447] [cluster-256-hpc-256:72152:0]        mm_posix.c:291  UCX  ERROR shm_unlink(/ucx_shm_posix_301d17b0) failed: No such file or directory
[1725067366.113293] [cluster-256-hpc-256:72749:0]        mm_posix.c:291  UCX  ERROR shm_unlink(/ucx_shm_posix_59f4cc0c) failed: No such file or directory
[1725067366.113340] [cluster-256-hpc-256:72749:0]        mm_posix.c:291  UCX  ERROR shm_unlink(/ucx_shm_posix_43ec28c6) failed: No such file or directory
[1725067366.157398] [cluster-256-hpc-256:71470:0]        mm_posix.c:291  UCX  ERROR shm_unlink(/ucx_shm_posix_3fcd0c9e) failed: No such file or directory
[1725067366.157463] [cluster-256-hpc-256:71470:0]        mm_posix.c:291  UCX  ERROR shm_unlink(/ucx_shm_posix_584fdd6e) failed: No such file or directory
[1725067366.159625] [cluster-256-hpc-256:72193:0]        mm_posix.c:291  UCX  ERROR shm_unlink(/ucx_shm_posix_3cbf35df) failed: No such file or directory
[1725067366.159677] [cluster-256-hpc-256:72193:0]        mm_posix.c:291  UCX  ERROR shm_unlink(/ucx_shm_posix_28ce130) failed: No such file or directory
[1725067366.159996] [cluster-256-hpc-256:72896:0]        mm_posix.c:291  UCX  ERROR shm_unlink(/ucx_shm_posix_6081ec7) failed: No such file or directory
[1725067366.160044] [cluster-256-hpc-256:72896:0]        mm_posix.c:291  UCX  ERROR shm_unlink(/ucx_shm_posix_53af9698) failed: No such file or directory
[1725067366.160032] [cluster-256-hpc-256:72281:0]        mm_posix.c:291  UCX  ERROR shm_unlink(/ucx_shm_posix_5c319ab8) failed: No such file or directory
[1725067366.160080] [cluster-256-hpc-256:72281:0]        mm_posix.c:291  UCX  ERROR shm_unlink(/ucx_shm_posix_1dd4f9b) failed: No such file or directory
[1725067366.161159] [cluster-256-hpc-256:71773:0]        mm_posix.c:291  UCX  ERROR shm_unlink(/ucx_shm_posix_716d63d5) failed: No such file or directory
[1725067366.161213] [cluster-256-hpc-256:71773:0]        mm_posix.c:291  UCX  ERROR shm_unlink(/ucx_shm_posix_7e0f9e2) failed: No such file or directory
[1725067366.164069] [cluster-256-hpc-256:71277:0]        mm_posix.c:291  UCX  ERROR shm_unlink(/ucx_shm_posix_6ac0643b) failed: No such file or directory
[1725067366.164120] [cluster-256-hpc-256:71277:0]        mm_posix.c:291  UCX  ERROR shm_unlink(/ucx_shm_posix_4ab14c93) failed: No such file or directory
[1725067366.164455] [cluster-256-hpc-256:71647:0]        mm_posix.c:291  UCX  ERROR shm_unlink(/ucx_shm_posix_6de8e743) failed: No such file or directory
[1725067366.164510] [cluster-256-hpc-256:71647:0]        mm_posix.c:291  UCX  ERROR shm_unlink(/ucx_shm_posix_50a2d277) failed: No such file or directory
[1725067366.164790] [cluster-256-hpc-256:71010:0]        mm_posix.c:291  UCX  ERROR shm_unlink(/ucx_shm_posix_34cf8ff6) failed: No such file or directory
[1725067366.164853] [cluster-256-hpc-256:71010:0]        mm_posix.c:291  UCX  ERROR shm_unlink(/ucx_shm_posix_ed65b1d) failed: No such file or directory
[1725067366.165843] [cluster-256-hpc-256:72265:0]        mm_posix.c:291  UCX  ERROR shm_unlink(/ucx_shm_posix_79f1a5bc) failed: No such file or directory
[1725067366.165891] [cluster-256-hpc-256:72265:0]        mm_posix.c:291  UCX  ERROR shm_unlink(/ucx_shm_posix_39f9b43d) failed: No such file or directory
[1725067366.166402] [cluster-256-hpc-256:72133:0]        mm_posix.c:291  UCX  ERROR shm_unlink(/ucx_shm_posix_48af3bd2) failed: No such file or directory
[1725067366.166459] [cluster-256-hpc-256:72133:0]        mm_posix.c:291  UCX  ERROR shm_unlink(/ucx_shm_posix_618b2d39) failed: No such file or directory
[1725067366.166667] [cluster-256-hpc-256:73382:0]        mm_posix.c:291  UCX  ERROR shm_unlink(/ucx_shm_posix_69d5eea) failed: No such file or directory
[1725067366.166739] [cluster-256-hpc-256:73382:0]        mm_posix.c:291  UCX  ERROR shm_unlink(/ucx_shm_posix_65438369) failed: No such file or directory
[1725067366.167114] [cluster-256-hpc-256:72378:0]        mm_posix.c:291  UCX  ERROR shm_unlink(/ucx_shm_posix_73e184ff) failed: No such file or directory
[1725067366.167175] [cluster-256-hpc-256:72378:0]        mm_posix.c:291  UCX  ERROR shm_unlink(/ucx_shm_posix_33bac504) failed: No such file or directory
[1725067366.167163] [cluster-256-hpc-256:71029:0]        mm_posix.c:291  UCX  ERROR shm_unlink(/ucx_shm_posix_7bedd23d) failed: No such file or directory
[1725067366.167255] [cluster-256-hpc-256:71029:0]        mm_posix.c:291  UCX  ERROR shm_unlink(/ucx_shm_posix_5dc4b85b) failed: No such file or directory
[1725067366.167539] [cluster-256-hpc-256:73152:0]        mm_posix.c:291  UCX  ERROR shm_unlink(/ucx_shm_posix_361b98bd) failed: No such file or directory
[1725067366.167591] [cluster-256-hpc-256:73152:0]        mm_posix.c:291  UCX  ERROR shm_unlink(/ucx_shm_posix_6eb68e6d) failed: No such file or directory
[1725067366.167776] [cluster-256-hpc-256:71769:0]        mm_posix.c:291  UCX  ERROR shm_unlink(/ucx_shm_posix_66adee11) failed: No such file or directory
[1725067366.167824] [cluster-256-hpc-256:71769:0]        mm_posix.c:291  UCX  ERROR shm_unlink(/ucx_shm_posix_55f8ce46) failed: No such file or directory
[1725067366.167800] [cluster-256-hpc-256:71896:0]        mm_posix.c:291  UCX  ERROR shm_unlink(/ucx_shm_posix_7d11133e) failed: No such file or directory
[1725067366.167858] [cluster-256-hpc-256:71896:0]        mm_posix.c:291  UCX  ERROR shm_unlink(/ucx_shm_posix_3c692734) failed: No such file or directory
[1725067366.167912] [cluster-256-hpc-256:73497:0]        mm_posix.c:291  UCX  ERROR shm_unlink(/ucx_shm_posix_20e2f647) failed: No such file or directory
[1725067366.167879] [cluster-256-hpc-256:73219:0]        mm_posix.c:291  UCX  ERROR shm_unlink(/ucx_shm_posix_7d10c277) failed: No such file or directory
[1725067366.167933] [cluster-256-hpc-256:73219:0]        mm_posix.c:291  UCX  ERROR shm_unlink(/ucx_shm_posix_4e07dada) failed: No such file or directory
[1725067366.167966] [cluster-256-hpc-256:73497:0]        mm_posix.c:291  UCX  ERROR shm_unlink(/ucx_shm_posix_10d950a6) failed: No such file or directory
[1725067366.168166] [cluster-256-hpc-256:71918:0]        mm_posix.c:291  UCX  ERROR shm_unlink(/ucx_shm_posix_18842131) failed: No such file or directory
[1725067366.168123] [cluster-256-hpc-256:71300:0]        mm_posix.c:291  UCX  ERROR shm_unlink(/ucx_shm_posix_59ca37f6) failed: No such file or directory
[1725067366.168186] [cluster-256-hpc-256:71300:0]        mm_posix.c:291  UCX  ERROR shm_unlink(/ucx_shm_posix_7b382c4b) failed: No such file or directory
[1725067366.168228] [cluster-256-hpc-256:71918:0]        mm_posix.c:291  UCX  ERROR shm_unlink(/ucx_shm_posix_158ba387) failed: No such file or directory
[1725067366.168475] [cluster-256-hpc-256:71477:0]        mm_posix.c:291  UCX  ERROR shm_unlink(/ucx_shm_posix_33c93ca6) failed: No such file or directory
[1725067366.168549] [cluster-256-hpc-256:71477:0]        mm_posix.c:291  UCX  ERROR shm_unlink(/ucx_shm_posix_33191656) failed: No such file or directory
[1725067366.168588] [cluster-256-hpc-256:72360:0]        mm_posix.c:291  UCX  ERROR shm_unlink(/ucx_shm_posix_1f64c81b) failed: No such file or directory
[1725067366.168666] [cluster-256-hpc-256:72360:0]        mm_posix.c:291  UCX  ERROR shm_unlink(/ucx_shm_posix_50ade05c) failed: No such file or directory
[1725067366.168991] [cluster-256-hpc-256:71079:0]        mm_posix.c:291  UCX  ERROR shm_unlink(/ucx_shm_posix_7251817) failed: No such file or directory
[1725067366.169007] [cluster-256-hpc-256:72581:0]        mm_posix.c:291  UCX  ERROR shm_unlink(/ucx_shm_posix_36ba058e) failed: No such file or directory
[1725067366.168955] [cluster-256-hpc-256:73252:0]        mm_posix.c:291  UCX  ERROR shm_unlink(/ucx_shm_posix_4c941d54) failed: No such file or directory
[1725067366.169022] [cluster-256-hpc-256:73252:0]        mm_posix.c:291  UCX  ERROR shm_unlink(/ucx_shm_posix_40655a21) failed: No such file or directory
[1725067366.168996] [cluster-256-hpc-256:71297:0]        mm_posix.c:291  UCX  ERROR shm_unlink(/ucx_shm_posix_7040a790) failed: No such file or directory
[1725067366.169062] [cluster-256-hpc-256:71297:0]        mm_posix.c:291  UCX  ERROR shm_unlink(/ucx_shm_posix_32a9cddb) failed: No such file or directory
[1725067366.169069] [cluster-256-hpc-256:72581:0]        mm_posix.c:291  UCX  ERROR shm_unlink(/ucx_shm_posix_6c723ed8) failed: No such file or directory
[1725067366.169074] [cluster-256-hpc-256:73474:0]        mm_posix.c:291  UCX  ERROR shm_unlink(/ucx_shm_posix_59a1a3e6) failed: No such file or directory
[1725067366.169126] [cluster-256-hpc-256:73474:0]        mm_posix.c:291  UCX  ERROR shm_unlink(/ucx_shm_posix_60db4216) failed: No such file or directory
[1725067366.169128] [cluster-256-hpc-256:71079:0]        mm_posix.c:291  UCX  ERROR shm_unlink(/ucx_shm_posix_503bdd35) failed: No such file or directory
[1725067366.169287] [cluster-256-hpc-256:72200:0]        mm_posix.c:291  UCX  ERROR shm_unlink(/ucx_shm_posix_5ccec6d3) failed: No such file or directory
[1725067366.169395] [cluster-256-hpc-256:72200:0]        mm_posix.c:291  UCX  ERROR shm_unlink(/ucx_shm_posix_63e1694) failed: No such file or directory
[1725067366.169497] [cluster-256-hpc-256:72640:0]        mm_posix.c:291  UCX  ERROR shm_unlink(/ucx_shm_posix_5d4210cf) failed: No such file or directory
[1725067366.169614] [cluster-256-hpc-256:72640:0]        mm_posix.c:291  UCX  ERROR shm_unlink(/ucx_shm_posix_64fcdf0e) failed: No such file or directory
[1725067366.169736] [cluster-256-hpc-256:73346:0]        mm_posix.c:291  UCX  ERROR shm_unlink(/ucx_shm_posix_4eb1fb95) failed: No such file or directory
[1725067366.169799] [cluster-256-hpc-256:71324:0]        mm_posix.c:291  UCX  ERROR shm_unlink(/ucx_shm_posix_4ad2277a) failed: No such file or directory
[1725067366.169847] [cluster-256-hpc-256:71324:0]        mm_posix.c:291  UCX  ERROR shm_unlink(/ucx_shm_posix_2031d221) failed: No such file or directory
[1725067366.169805] [cluster-256-hpc-256:73346:0]        mm_posix.c:291  UCX  ERROR shm_unlink(/ucx_shm_posix_55db99c5) failed: No such file or directory
[1725067366.169805] [cluster-256-hpc-256:73496:0]        mm_posix.c:291  UCX  ERROR shm_unlink(/ucx_shm_posix_319acf07) failed: No such file or directory
[1725067366.169857] [cluster-256-hpc-256:73496:0]        mm_posix.c:291  UCX  ERROR shm_unlink(/ucx_shm_posix_77900144) failed: No such file or directory
[1725067366.170001] [cluster-256-hpc-256:73470:0]        mm_posix.c:291  UCX  ERROR shm_unlink(/ucx_shm_posix_6e8ec75e) failed: No such file or directory
[1725067366.169993] [cluster-256-hpc-256:72296:0]        mm_posix.c:291  UCX  ERROR shm_unlink(/ucx_shm_posix_8d397a8) failed: No such file or directory
[1725067366.170044] [cluster-256-hpc-256:72296:0]        mm_posix.c:291  UCX  ERROR shm_unlink(/ucx_shm_posix_2199b354) failed: No such file or directory
[1725067366.169949] [cluster-256-hpc-256:71442:0]        mm_posix.c:291  UCX  ERROR shm_unlink(/ucx_shm_posix_73adbfd3) failed: No such file or directory
[1725067366.170051] [cluster-256-hpc-256:71442:0]        mm_posix.c:291  UCX  ERROR shm_unlink(/ucx_shm_posix_2feb8c78) failed: No such file or directory
[1725067366.170120] [cluster-256-hpc-256:73470:0]        mm_posix.c:291  UCX  ERROR shm_unlink(/ucx_shm_posix_770c9eb3) failed: No such file or directory
[1725067366.170118] [cluster-256-hpc-256:71572:0]        mm_posix.c:291  UCX  ERROR shm_unlink(/ucx_shm_posix_66d27904) failed: No such file or directory
[1725067366.170169] [cluster-256-hpc-256:71572:0]        mm_posix.c:291  UCX  ERROR shm_unlink(/ucx_shm_posix_5564a23f) failed: No such file or directory
[1725067366.170247] [cluster-256-hpc-256:71861:0]        mm_posix.c:291  UCX  ERROR shm_unlink(/ucx_shm_posix_3e88bfbd) failed: No such file or directory
[1725067366.170340] [cluster-256-hpc-256:71861:0]        mm_posix.c:291  UCX  ERROR shm_unlink(/ucx_shm_posix_314159f6) failed: No such file or directory
[1725067366.170658] [cluster-256-hpc-256:71020:0]        mm_posix.c:291  UCX  ERROR shm_unlink(/ucx_shm_posix_59c5c82f) failed: No such file or directory
[1725067366.170705] [cluster-256-hpc-256:71020:0]        mm_posix.c:291  UCX  ERROR shm_unlink(/ucx_shm_posix_1015f08b) failed: No such file or directory
[1725067366.170661] [cluster-256-hpc-256:71019:0]        mm_posix.c:291  UCX  ERROR shm_unlink(/ucx_shm_posix_5b4c111f) failed: No such file or directory
[1725067366.170745] [cluster-256-hpc-256:71019:0]        mm_posix.c:291  UCX  ERROR shm_unlink(/ucx_shm_posix_237fc927) failed: No such file or directory
[1725067366.170654] [cluster-256-hpc-256:71860:0]        mm_posix.c:291  UCX  ERROR shm_unlink(/ucx_shm_posix_589dd113) failed: No such file or directory
[1725067366.170709] [cluster-256-hpc-256:71860:0]        mm_posix.c:291  UCX  ERROR shm_unlink(/ucx_shm_posix_1a13ee48) failed: No such file or directory
[1725067366.170801] [cluster-256-hpc-256:72096:0]        mm_posix.c:291  UCX  ERROR shm_unlink(/ucx_shm_posix_68cfa34) failed: No such file or directory
[1725067366.170913] [cluster-256-hpc-256:72983:0]        mm_posix.c:291  UCX  ERROR shm_unlink(/ucx_shm_posix_32d69c9a) failed: No such file or directory
[1725067366.170883] [cluster-256-hpc-256:72096:0]        mm_posix.c:291  UCX  ERROR shm_unlink(/ucx_shm_posix_12be290b) failed: No such file or directory
[1725067366.170962] [cluster-256-hpc-256:71370:0]        mm_posix.c:291  UCX  ERROR shm_unlink(/ucx_shm_posix_193360b) failed: No such file or directory
[1725067366.171027] [cluster-256-hpc-256:71370:0]        mm_posix.c:291  UCX  ERROR shm_unlink(/ucx_shm_posix_51496413) failed: No such file or directory
[1725067366.170994] [cluster-256-hpc-256:71643:0]        mm_posix.c:291  UCX  ERROR shm_unlink(/ucx_shm_posix_26e8bf51) failed: No such file or directory
[1725067366.170985] [cluster-256-hpc-256:72531:0]        mm_posix.c:291  UCX  ERROR shm_unlink(/ucx_shm_posix_600e4cc4) failed: No such file or directory
[1725067366.170976] [cluster-256-hpc-256:72832:0]        mm_posix.c:291  UCX  ERROR shm_unlink(/ucx_shm_posix_484e6d89) failed: No such file or directory
[1725067366.171049] [cluster-256-hpc-256:72832:0]        mm_posix.c:291  UCX  ERROR shm_unlink(/ucx_shm_posix_5f099682) failed: No such file or directory
[1725067366.170989] [cluster-256-hpc-256:72983:0]        mm_posix.c:291  UCX  ERROR shm_unlink(/ucx_shm_posix_179fc691) failed: No such file or directory
[1725067366.171074] [cluster-256-hpc-256:72531:0]        mm_posix.c:291  UCX  ERROR shm_unlink(/ucx_shm_posix_b8d53d5) failed: No such file or directory
[1725067366.171076] [cluster-256-hpc-256:71643:0]        mm_posix.c:291  UCX  ERROR shm_unlink(/ucx_shm_posix_3d11db6b) failed: No such file or directory
[1725067366.171154] [cluster-256-hpc-256:72758:0]        mm_posix.c:291  UCX  ERROR shm_unlink(/ucx_shm_posix_4d894c14) failed: No such file or directory
[1725067366.171231] [cluster-256-hpc-256:72758:0]        mm_posix.c:291  UCX  ERROR shm_unlink(/ucx_shm_posix_630b0e90) failed: No such file or directory
[1725067366.171162] [cluster-256-hpc-256:73209:0]        mm_posix.c:291  UCX  ERROR shm_unlink(/ucx_shm_posix_603eb47d) failed: No such file or directory
[1725067366.171253] [cluster-256-hpc-256:73209:0]        mm_posix.c:291  UCX  ERROR shm_unlink(/ucx_shm_posix_4593589e) failed: No such file or directory
[1725067366.171157] [cluster-256-hpc-256:73415:0]        mm_posix.c:291  UCX  ERROR shm_unlink(/ucx_shm_posix_1513a92f) failed: No such file or directory
[1725067366.171235] [cluster-256-hpc-256:73415:0]        mm_posix.c:291  UCX  ERROR shm_unlink(/ucx_shm_posix_1e04fb37) failed: No such file or directory
[1725067366.171297] [cluster-256-hpc-256:73282:0]        mm_posix.c:291  UCX  ERROR shm_unlink(/ucx_shm_posix_23391686) failed: No such file or directory
[1725067366.171344] [cluster-256-hpc-256:72648:0]        mm_posix.c:291  UCX  ERROR shm_unlink(/ucx_shm_posix_4678fb6d) failed: No such file or directory
[1725067366.171393] [cluster-256-hpc-256:72648:0]        mm_posix.c:291  UCX  ERROR shm_unlink(/ucx_shm_posix_38443a74) failed: No such file or directory
[1725067366.171355] [cluster-256-hpc-256:73282:0]        mm_posix.c:291  UCX  ERROR shm_unlink(/ucx_shm_posix_79695849) failed: No such file or directory
[1725067366.171438] [cluster-256-hpc-256:73077:0]        mm_posix.c:291  UCX  ERROR shm_unlink(/ucx_shm_posix_2678445b) failed: No such file or directory
[1725067366.171494] [cluster-256-hpc-256:73077:0]        mm_posix.c:291  UCX  ERROR shm_unlink(/ucx_shm_posix_59964544) failed: No such file or directory
[1725067366.171425] [cluster-256-hpc-256:73520:0]        mm_posix.c:291  UCX  ERROR shm_unlink(/ucx_shm_posix_b714638) failed: No such file or directory
[1725067366.171482] [cluster-256-hpc-256:73520:0]        mm_posix.c:291  UCX  ERROR shm_unlink(/ucx_shm_posix_cf85e23) failed: No such file or directory
[1725067366.171406] [cluster-256-hpc-256:71802:0]        mm_posix.c:291  UCX  ERROR shm_unlink(/ucx_shm_posix_600fcab9) failed: No such file or directory
[1725067366.171467] [cluster-256-hpc-256:71802:0]        mm_posix.c:291  UCX  ERROR shm_unlink(/ucx_shm_posix_2cbbd4c6) failed: No such file or directory
[1725067366.171486] [cluster-256-hpc-256:72980:0]        mm_posix.c:291  UCX  ERROR shm_unlink(/ucx_shm_posix_55bdfbba) failed: No such file or directory
[1725067366.171548] [cluster-256-hpc-256:72980:0]        mm_posix.c:291  UCX  ERROR shm_unlink(/ucx_shm_posix_7dc2c7e0) failed: No such file or directory
[1725067366.171517] [cluster-256-hpc-256:73081:0]        mm_posix.c:291  UCX  ERROR shm_unlink(/ucx_shm_posix_60ca85b9) failed: No such file or directory
[1725067366.171578] [cluster-256-hpc-256:73081:0]        mm_posix.c:291  UCX  ERROR shm_unlink(/ucx_shm_posix_6af53a3e) failed: No such file or directory
[1725067366.171446] [cluster-256-hpc-256:70997:0]        mm_posix.c:291  UCX  ERROR shm_unlink(/ucx_shm_posix_7f3db2cc) failed: No such file or directory
[1725067366.171495] [cluster-256-hpc-256:70997:0]        mm_posix.c:291  UCX  ERROR shm_unlink(/ucx_shm_posix_3ed81350) failed: No such file or directory
[1725067366.171637] [cluster-256-hpc-256:71635:0]        mm_posix.c:291  UCX  ERROR shm_unlink(/ucx_shm_posix_36a1f0df) failed: No such file or directory
[1725067366.171694] [cluster-256-hpc-256:71635:0]        mm_posix.c:291  UCX  ERROR shm_unlink(/ucx_shm_posix_3504e7ea) failed: No such file or directory
[1725067366.171647] [cluster-256-hpc-256:72462:0]        mm_posix.c:291  UCX  ERROR shm_unlink(/ucx_shm_posix_130b76b4) failed: No such file or directory
[1725067366.171712] [cluster-256-hpc-256:72462:0]        mm_posix.c:291  UCX  ERROR shm_unlink(/ucx_shm_posix_3315b671) failed: No such file or directory
[1725067366.171606] [cluster-256-hpc-256:72902:0]        mm_posix.c:291  UCX  ERROR shm_unlink(/ucx_shm_posix_7a2dfbd3) failed: No such file or directory
[1725067366.171678] [cluster-256-hpc-256:72902:0]        mm_posix.c:291  UCX  ERROR shm_unlink(/ucx_shm_posix_34a4992d) failed: No such file or directory
[1725067366.171728] [cluster-256-hpc-256:71505:0]        mm_posix.c:291  UCX  ERROR shm_unlink(/ucx_shm_posix_20967c66) failed: No such file or directory
[1725067366.171783] [cluster-256-hpc-256:71505:0]        mm_posix.c:291  UCX  ERROR shm_unlink(/ucx_shm_posix_6fcfc19) failed: No such file or directory
[1725067366.171911] [cluster-256-hpc-256:72312:0]        mm_posix.c:291  UCX  ERROR shm_unlink(/ucx_shm_posix_1dcae9f6) failed: No such file or directory
[1725067366.171906] [cluster-256-hpc-256:72584:0]        mm_posix.c:291  UCX  ERROR shm_unlink(/ucx_shm_posix_55a08cde) failed: No such file or directory
[1725067366.171956] [cluster-256-hpc-256:72584:0]        mm_posix.c:291  UCX  ERROR shm_unlink(/ucx_shm_posix_663f4313) failed: No such file or directory
[1725067366.171979] [cluster-256-hpc-256:72312:0]        mm_posix.c:291  UCX  ERROR shm_unlink(/ucx_shm_posix_57c0d7cd) failed: No such file or directory
[1725067366.171979] [cluster-256-hpc-256:72431:0]        mm_posix.c:291  UCX  ERROR shm_unlink(/ucx_shm_posix_644e568d) failed: No such file or directory
[1725067366.172024] [cluster-256-hpc-256:72431:0]        mm_posix.c:291  UCX  ERROR shm_unlink(/ucx_shm_posix_54c0a7d2) failed: No such file or directory
[1725067366.172072] [cluster-256-hpc-256:71723:0]        mm_posix.c:291  UCX  ERROR shm_unlink(/ucx_shm_posix_4730f0be) failed: No such file or directory
[1725067366.172118] [cluster-256-hpc-256:71723:0]        mm_posix.c:291  UCX  ERROR shm_unlink(/ucx_shm_posix_5598e144) failed: No such file or directory
[1725067366.172628] [cluster-256-hpc-256:72082:0]        mm_posix.c:291  UCX  ERROR shm_unlink(/ucx_shm_posix_4d7fd715) failed: No such file or directory
[1725067366.172690] [cluster-256-hpc-256:72082:0]        mm_posix.c:291  UCX  ERROR shm_unlink(/ucx_shm_posix_7bf460da) failed: No such file or directory
[1725067366.172686] [cluster-256-hpc-256:71689:0]        mm_posix.c:291  UCX  ERROR shm_unlink(/ucx_shm_posix_8ac8524) failed: No such file or directory
[1725067366.172762] [cluster-256-hpc-256:71689:0]        mm_posix.c:291  UCX  ERROR shm_unlink(/ucx_shm_posix_36636702) failed: No such file or directory
[1725067366.172827] [cluster-256-hpc-256:72836:0]        mm_posix.c:291  UCX  ERROR shm_unlink(/ucx_shm_posix_6180d05c) failed: No such file or directory
[1725067366.172886] [cluster-256-hpc-256:72836:0]        mm_posix.c:291  UCX  ERROR shm_unlink(/ucx_shm_posix_15dafef2) failed: No such file or directory
[1725067366.173051] [cluster-256-hpc-256:73089:0]        mm_posix.c:291  UCX  ERROR shm_unlink(/ucx_shm_posix_36c748f8) failed: No such file or directory
[1725067366.173114] [cluster-256-hpc-256:73089:0]        mm_posix.c:291  UCX  ERROR shm_unlink(/ucx_shm_posix_3ff4a24b) failed: No such file or directory
[1725067366.173126] [cluster-256-hpc-256:71818:0]        mm_posix.c:291  UCX  ERROR shm_unlink(/ucx_shm_posix_4b03057) failed: No such file or directory
[1725067366.173179] [cluster-256-hpc-256:71818:0]        mm_posix.c:291  UCX  ERROR shm_unlink(/ucx_shm_posix_23bd255a) failed: No such file or directory
[1725067366.173274] [cluster-256-hpc-256:73274:0]        mm_posix.c:291  UCX  ERROR shm_unlink(/ucx_shm_posix_5c48c82e) failed: No such file or directory
[1725067366.173325] [cluster-256-hpc-256:73274:0]        mm_posix.c:291  UCX  ERROR shm_unlink(/ucx_shm_posix_19c9304d) failed: No such file or directory
[1725067366.173313] [cluster-256-hpc-256:73402:0]        mm_posix.c:291  UCX  ERROR shm_unlink(/ucx_shm_posix_2bca702) failed: No such file or directory
[1725067366.173367] [cluster-256-hpc-256:73402:0]        mm_posix.c:291  UCX  ERROR shm_unlink(/ucx_shm_posix_164ce017) failed: No such file or directory
[1725067366.173340] [cluster-256-hpc-256:73438:0]        mm_posix.c:291  UCX  ERROR shm_unlink(/ucx_shm_posix_43bd4f86) failed: No such file or directory
[1725067366.173388] [cluster-256-hpc-256:73438:0]        mm_posix.c:291  UCX  ERROR shm_unlink(/ucx_shm_posix_2c51d078) failed: No such file or directory
[1725067366.173567] [cluster-256-hpc-256:71701:0]        mm_posix.c:291  UCX  ERROR shm_unlink(/ucx_shm_posix_1779b8b4) failed: No such file or directory
[1725067366.173622] [cluster-256-hpc-256:71701:0]        mm_posix.c:291  UCX  ERROR shm_unlink(/ucx_shm_posix_43b28fde) failed: No such file or directory
[1725067366.173740] [cluster-256-hpc-256:71078:0]        mm_posix.c:291  UCX  ERROR shm_unlink(/ucx_shm_posix_4d36e648) failed: No such file or directory
[1725067366.173715] [cluster-256-hpc-256:71320:0]        mm_posix.c:291  UCX  ERROR shm_unlink(/ucx_shm_posix_1e3f201f) failed: No such file or directory
[1725067366.173772] [cluster-256-hpc-256:71320:0]        mm_posix.c:291  UCX  ERROR shm_unlink(/ucx_shm_posix_72bb4522) failed: No such file or directory
[1725067366.173805] [cluster-256-hpc-256:71078:0]        mm_posix.c:291  UCX  ERROR shm_unlink(/ucx_shm_posix_de2b6d6) failed: No such file or directory
[1725067366.173848] [cluster-256-hpc-256:72786:0]        mm_posix.c:291  UCX  ERROR shm_unlink(/ucx_shm_posix_28040925) failed: No such file or directory
[1725067366.173907] [cluster-256-hpc-256:72786:0]        mm_posix.c:291  UCX  ERROR shm_unlink(/ucx_shm_posix_19a740b3) failed: No such file or directory
[1725067366.174052] [cluster-256-hpc-256:73283:0]        mm_posix.c:291  UCX  ERROR shm_unlink(/ucx_shm_posix_2d98c6da) failed: No such file or directory
[1725067366.174069] [cluster-256-hpc-256:71809:0]        mm_posix.c:291  UCX  ERROR shm_unlink(/ucx_shm_posix_7780cf46) failed: No such file or directory
[1725067366.174125] [cluster-256-hpc-256:71809:0]        mm_posix.c:291  UCX  ERROR shm_unlink(/ucx_shm_posix_29fed1a4) failed: No such file or directory
[1725067366.174101] [cluster-256-hpc-256:73283:0]        mm_posix.c:291  UCX  ERROR shm_unlink(/ucx_shm_posix_6dcb2b76) failed: No such file or directory
[1725067366.174261] [cluster-256-hpc-256:72523:0]        mm_posix.c:291  UCX  ERROR shm_unlink(/ucx_shm_posix_4eda9770) failed: No such file or directory
[1725067366.174332] [cluster-256-hpc-256:72523:0]        mm_posix.c:291  UCX  ERROR shm_unlink(/ucx_shm_posix_719cc4eb) failed: No such file or directory
[1725067366.174453] [cluster-256-hpc-256:71736:0]        mm_posix.c:291  UCX  ERROR shm_unlink(/ucx_shm_posix_2c3c4427) failed: No such file or directory
[1725067366.174516] [cluster-256-hpc-256:71736:0]        mm_posix.c:291  UCX  ERROR shm_unlink(/ucx_shm_posix_5c7384d7) failed: No such file or directory
[1725067366.174521] [cluster-256-hpc-256:73366:0]        mm_posix.c:291  UCX  ERROR shm_unlink(/ucx_shm_posix_20de68e2) failed: No such file or directory
[1725067366.174573] [cluster-256-hpc-256:73366:0]        mm_posix.c:291  UCX  ERROR shm_unlink(/ucx_shm_posix_41e33ca0) failed: No such file or directory
[1725067366.174635] [cluster-256-hpc-256:72086:0]        mm_posix.c:291  UCX  ERROR shm_unlink(/ucx_shm_posix_576397ea) failed: No such file or directory
[1725067366.174700] [cluster-256-hpc-256:72086:0]        mm_posix.c:291  UCX  ERROR shm_unlink(/ucx_shm_posix_7fadfd8e) failed: No such file or directory
[1725067366.174965] [cluster-256-hpc-256:72706:0]        mm_posix.c:291  UCX  ERROR shm_unlink(/ucx_shm_posix_7b6bcf0c) failed: No such file or directory
[1725067366.175028] [cluster-256-hpc-256:72706:0]        mm_posix.c:291  UCX  ERROR shm_unlink(/ucx_shm_posix_36f4155) failed: No such file or directory
[1725067366.175550] [cluster-256-hpc-256:72915:0]        mm_posix.c:291  UCX  ERROR shm_unlink(/ucx_shm_posix_29374be2) failed: No such file or directory
[1725067366.175600] [cluster-256-hpc-256:72915:0]        mm_posix.c:291  UCX  ERROR shm_unlink(/ucx_shm_posix_49e8e53d) failed: No such file or directory
[1725067366.175591] [cluster-256-hpc-256:71036:0]        mm_posix.c:291  UCX  ERROR shm_unlink(/ucx_shm_posix_282145a1) failed: No such file or directory
[1725067366.175651] [cluster-256-hpc-256:71036:0]        mm_posix.c:291  UCX  ERROR shm_unlink(/ucx_shm_posix_1b2f7958) failed: No such file or directory
[1725067366.175663] [cluster-256-hpc-256:72749:0]        mm_posix.c:291  UCX  ERROR shm_unlink(/ucx_shm_posix_78939aa1) failed: No such file or directory
[1725067366.175740] [cluster-256-hpc-256:72503:0]        mm_posix.c:291  UCX  ERROR shm_unlink(/ucx_shm_posix_4e959d48) failed: No such file or directory
[1725067366.175731] [cluster-256-hpc-256:72749:0]        mm_posix.c:291  UCX  ERROR shm_unlink(/ucx_shm_posix_6c3604f2) failed: No such file or directory
[1725067366.175810] [cluster-256-hpc-256:72503:0]        mm_posix.c:291  UCX  ERROR shm_unlink(/ucx_shm_posix_2286c0ae) failed: No such file or directory
[1725067366.175972] [cluster-256-hpc-256:73036:0]        mm_posix.c:291  UCX  ERROR shm_unlink(/ucx_shm_posix_16d1646f) failed: No such file or directory
[1725067366.176034] [cluster-256-hpc-256:73036:0]        mm_posix.c:291  UCX  ERROR shm_unlink(/ucx_shm_posix_1f061b2e) failed: No such file or directory
[1725067366.176046] [cluster-256-hpc-256:72627:0]        mm_posix.c:291  UCX  ERROR shm_unlink(/ucx_shm_posix_7f586b04) failed: No such file or directory
[1725067366.176009] [cluster-256-hpc-256:72963:0]        mm_posix.c:291  UCX  ERROR shm_unlink(/ucx_shm_posix_60b77ca9) failed: No such file or directory
[1725067366.176064] [cluster-256-hpc-256:72963:0]        mm_posix.c:291  UCX  ERROR shm_unlink(/ucx_shm_posix_710ea3f1) failed: No such file or directory
[1725067366.176110] [cluster-256-hpc-256:72627:0]        mm_posix.c:291  UCX  ERROR shm_unlink(/ucx_shm_posix_6c347e12) failed: No such file or directory
[1725067366.176145] [cluster-256-hpc-256:72426:0]        mm_posix.c:291  UCX  ERROR shm_unlink(/ucx_shm_posix_27d8aad0) failed: No such file or directory
[1725067366.176196] [cluster-256-hpc-256:72426:0]        mm_posix.c:291  UCX  ERROR shm_unlink(/ucx_shm_posix_69df7387) failed: No such file or directory
[1725067366.176197] [cluster-256-hpc-256:72152:0]        mm_posix.c:291  UCX  ERROR shm_unlink(/ucx_shm_posix_fbdfd18) failed: No such file or directory
[1725067366.176259] [cluster-256-hpc-256:72152:0]        mm_posix.c:291  UCX  ERROR shm_unlink(/ucx_shm_posix_11b63d12) failed: No such file or directory
[1725067366.176495] [cluster-256-hpc-256:71475:0]        mm_posix.c:291  UCX  ERROR shm_unlink(/ucx_shm_posix_b5cf553) failed: No such file or directory
[1725067366.176553] [cluster-256-hpc-256:71475:0]        mm_posix.c:291  UCX  ERROR shm_unlink(/ucx_shm_posix_3766fa02) failed: No such file or directory
[1725067366.177026] [cluster-256-hpc-256:71538:0]        mm_posix.c:291  UCX  ERROR shm_unlink(/ucx_shm_posix_4b52d74d) failed: No such file or directory
[1725067366.177080] [cluster-256-hpc-256:71538:0]        mm_posix.c:291  UCX  ERROR shm_unlink(/ucx_shm_posix_6530a445) failed: No such file or directory
[1725067366.177578] [cluster-256-hpc-256:73166:0]        mm_posix.c:291  UCX  ERROR shm_unlink(/ucx_shm_posix_1d9ad038) failed: No such file or directory
[1725067366.177648] [cluster-256-hpc-256:73166:0]        mm_posix.c:291  UCX  ERROR shm_unlink(/ucx_shm_posix_2d46f5e3) failed: No such file or directory
End time: 1725067366
