LAMMPS (17 Apr 2024 - Development - a8687b5)
KOKKOS mode with Kokkos version 4.3.1 is enabled (src/KOKKOS/kokkos.cpp:72)
  will use up to 8 GPU(s) per node
  using 1 OpenMP thread(s) per MPI task
Reading data file ...
  triclinic box = (0 0 0) to (22.326 11.1412 13.778966) with tilt (0 -5.02603 0)
  8 by 4 by 8 MPI processor grid
  reading atoms ...
  304 atoms
  reading velocities ...
  304 velocities
  read_data CPU = 0.232 seconds
Replication is creating a 64x32x32 = 65536 times larger system...
  triclinic box = (0 0 0) to (1428.864 356.5184 440.92691) with tilt (0 -160.83296 0)
  16 by 4 by 4 MPI processor grid
  bounding box image = (0 -1 -1) to (0 1 1)
  bounding box extra memory = 0.03 MB
  average # of replicas added to proc = 422.65 out of 65536 (0.64%)
  19922944 atoms
  replicate CPU = 0.058 seconds
Neighbor list info ...
  update: every = 20 steps, delay = 0 steps, check = no
  max neighbors/atom: 2000, page size: 100000
  master list distance cutoff = 11
  ghost atom cutoff = 11
  binsize = 11, bins = 145 33 41
  2 neighbor lists, perpetual/occasional/extra = 2 0 0
  (1) pair reaxff/kk, perpetual
      attributes: half, newton off, ghost, kokkos_device
      pair build: half/bin/newtoff/ghost/kk/device
      stencil: full/ghost/bin/3d
      bin: kk/device
  (2) fix qeq/reax/kk, perpetual
      attributes: full, newton off, kokkos_device
      pair build: full/bin/kk/device
      stencil: full/bin/3d
      bin: kk/device
Setting up Verlet run ...
  Unit style    : real
  Current step  : 0
  Time step     : 0.1
Per MPI rank memory allocation (min/avg/max) = 988.8 | 989.1 | 992.7 Mbytes
   Step          Temp          PotEng         Press          E_vdwl         E_coul         Volume    
         0   300           -113.27833      439.02029     -111.57687     -1.7014647      2.2461536e+08
        10   300.76787     -113.28045      806.94581     -111.57901     -1.7014353      2.2461536e+08
        20   302.41893     -113.28523      1697.8315     -111.5839      -1.701324       2.2461536e+08
        30   302.57545     -113.28557      4298.4907     -111.58447     -1.7010952      2.2461536e+08
        40   300.64331     -113.27974      6396.7718     -111.57897     -1.7007684      2.2461536e+08
        50   297.45505     -113.27019      6484.6631     -111.56979     -1.7004028      2.2461536e+08
        60   294.75204     -113.26209      6200.5553     -111.56205     -1.7000331      2.2461536e+08
        70   294.65379     -113.26175      6838.3737     -111.56209     -1.6996571      2.2461536e+08
        80   297.75343     -113.27097      8234.9012     -111.57169     -1.6992792      2.2461536e+08
        90   301.65876     -113.28261      9374.4189     -111.58366     -1.6989424      2.2461536e+08
       100   302.57974     -113.2853       10365.457     -111.5866      -1.6986993      2.2461536e+08
Loop time of 15.463 on 256 procs for 100 steps with 19922944 atoms

Performance: 0.056 ns/day, 429.529 hours/ns, 6.467 timesteps/s, 128.842 Matom-step/s
61.9% CPU use with 256 MPI tasks x 1 OpenMP threads

MPI task timing breakdown:
Section |  min time  |  avg time  |  max time  |%varavg| %total
---------------------------------------------------------------
Pair    | 1.4756     | 1.5059     | 1.6535     |   1.3 |  9.74
Neigh   | 0.14245    | 0.20318    | 1.7411     |  38.4 |  1.31
Comm    | 1.0586     | 1.1529     | 1.3213     |   7.5 |  7.46
Output  | 0.034578   | 0.14182    | 0.19832    |  18.4 |  0.92
Modify  | 10.848     | 12.417     | 12.506     |   5.1 | 80.30
Other   |            | 0.04231    |            |       |  0.27

Nlocal:          77824 ave       77861 max       77790 min
Histogram: 2 2 31 46 61 62 34 13 3 2
Nghost:        68517.6 ave       68569 max       68462 min
Histogram: 2 7 21 29 49 71 39 23 11 4
Neighs:     2.1545e+07 ave 2.15554e+07 max 2.15346e+07 min
Histogram: 1 2 16 46 65 61 46 15 2 2
FullNghs:  3.81871e+07 ave 3.82053e+07 max 3.81705e+07 min
Histogram: 1 3 34 45 58 60 38 12 3 2

Total # of neighbors = 9.775896e+09
Ave neighs/atom = 490.68531
Neighbor list builds = 5
Dangerous builds not checked
Total wall time: 0:00:21
START OF JOBSPEC
{"resources": [{"type": "node", "count": 32, "with": [{"type": "slot", "count": 8, "with": [{"type": "core", "count": 1}, {"type": "gpu", "count": 1}], "label": "task"}]}], "tasks": [{"command": ["lmp", "-k", "on", "g", "8", "-sf", "kk", "-pk", "kokkos", "cuda/aware", "off", "newton", "on", "neigh", "half", "-in", "in.reaxff.hns", "-v", "x", "64", "-v", "y", "32", "-v", "z", "32", "-in", "in.reaxff.hns", "-nocite"], "slot": "task", "count": {"per_slot": 1}}], "attributes": {"system": {"duration": 0, "cwd": "/code", "shell": {"options": {"rlimit": {"cpu": -1, "fsize": -1, "data": -1, "stack": 8388608, "core": -1, "nofile": 1048576, "as": -1, "rss": -1, "nproc": -1}, "cpu-affinity": "per-task"}}}, "user": {"study_id": "lammps-reax-32-iter-2"}}, "version": 1}
START OF EVENTLOG
{"timestamp":1725044787.2577527,"name":"init"}
{"timestamp":1725044787.2587895,"name":"starting"}
{"timestamp":1725044787.2910426,"name":"shell.init","context":{"service":"0-shell-fmMNQry5","leader-rank":0,"size":32}}
{"timestamp":1725044787.3124452,"name":"shell.start","context":{"taskmap":{"version":1,"map":[[0,32,8,1]]}}}
{"timestamp":1725044810.8545756,"name":"shell.task-exit","context":{"localid":0,"rank":96,"state":"Exited","pid":136,"wait_status":0,"signaled":0,"exitcode":0}}
{"timestamp":1725044811.5914929,"name":"complete","context":{"status":0}}
{"timestamp":1725044811.5915415,"name":"done"}

