LAMMPS (17 Apr 2024 - Development - a8687b5)
KOKKOS mode with Kokkos version 4.3.1 is enabled (src/KOKKOS/kokkos.cpp:72)
  will use up to 8 GPU(s) per node
  using 1 OpenMP thread(s) per MPI task
Reading data file ...
  triclinic box = (0 0 0) to (22.326 11.1412 13.778966) with tilt (0 -5.02603 0)
  8 by 4 by 8 MPI processor grid
  reading atoms ...
  304 atoms
  reading velocities ...
  304 velocities
  read_data CPU = 0.201 seconds
Replication is creating a 64x32x32 = 65536 times larger system...
  triclinic box = (0 0 0) to (1428.864 356.5184 440.92691) with tilt (0 -160.83296 0)
  16 by 4 by 4 MPI processor grid
  bounding box image = (0 -1 -1) to (0 1 1)
  bounding box extra memory = 0.03 MB
  average # of replicas added to proc = 422.65 out of 65536 (0.64%)
  19922944 atoms
  replicate CPU = 0.051 seconds
Neighbor list info ...
  update: every = 20 steps, delay = 0 steps, check = no
  max neighbors/atom: 2000, page size: 100000
  master list distance cutoff = 11
  ghost atom cutoff = 11
  binsize = 11, bins = 145 33 41
  2 neighbor lists, perpetual/occasional/extra = 2 0 0
  (1) pair reaxff/kk, perpetual
      attributes: half, newton off, ghost, kokkos_device
      pair build: half/bin/newtoff/ghost/kk/device
      stencil: full/ghost/bin/3d
      bin: kk/device
  (2) fix qeq/reax/kk, perpetual
      attributes: full, newton off, kokkos_device
      pair build: full/bin/kk/device
      stencil: full/bin/3d
      bin: kk/device
Setting up Verlet run ...
  Unit style    : real
  Current step  : 0
  Time step     : 0.1
Per MPI rank memory allocation (min/avg/max) = 988.8 | 989.1 | 992.7 Mbytes
   Step          Temp          PotEng         Press          E_vdwl         E_coul         Volume    
         0   300           -113.27833      439.02026     -111.57687     -1.7014647      2.2461536e+08
        10   300.76787     -113.28045      806.9458      -111.57901     -1.7014353      2.2461536e+08
        20   302.41893     -113.28523      1697.8315     -111.5839      -1.701324       2.2461536e+08
        30   302.57545     -113.28557      4298.5114     -111.58447     -1.7010952      2.2461536e+08
        40   300.64331     -113.27974      6396.7954     -111.57897     -1.7007684      2.2461536e+08
        50   297.45504     -113.27019      6484.6662     -111.56979     -1.7004028      2.2461536e+08
        60   294.75203     -113.26209      6200.5413     -111.56205     -1.7000331      2.2461536e+08
        70   294.65378     -113.26175      6838.3534     -111.56209     -1.6996571      2.2461536e+08
        80   297.75343     -113.27097      8234.8684     -111.57169     -1.6992792      2.2461536e+08
        90   301.65878     -113.28261      9374.4604     -111.58366     -1.6989423      2.2461536e+08
       100   302.57975     -113.2853       10365.443     -111.5866      -1.6986994      2.2461536e+08
Loop time of 15.4875 on 256 procs for 100 steps with 19922944 atoms

Performance: 0.056 ns/day, 430.208 hours/ns, 6.457 timesteps/s, 128.639 Matom-step/s
61.7% CPU use with 256 MPI tasks x 1 OpenMP threads

MPI task timing breakdown:
Section |  min time  |  avg time  |  max time  |%varavg| %total
---------------------------------------------------------------
Pair    | 1.4773     | 1.512      | 1.95       |   4.6 |  9.76
Neigh   | 0.14358    | 0.20403    | 1.8334     |  40.4 |  1.32
Comm    | 1.0529     | 1.5036     | 2.0889     |  29.5 |  9.71
Output  | 0.035751   | 0.051496   | 0.071497   |   4.9 |  0.33
Modify  | 10.195     | 12.174     | 12.665     |  12.5 | 78.61
Other   |            | 0.0423     |            |       |  0.27

Nlocal:          77824 ave       77861 max       77790 min
Histogram: 2 2 31 46 61 62 34 13 3 2
Nghost:        68517.6 ave       68569 max       68462 min
Histogram: 2 7 21 29 49 71 39 23 11 4
Neighs:     2.1545e+07 ave 2.15554e+07 max 2.15346e+07 min
Histogram: 1 2 16 46 65 61 46 15 2 2
FullNghs:  3.81871e+07 ave 3.82053e+07 max 3.81705e+07 min
Histogram: 1 3 34 45 58 60 38 12 3 2

Total # of neighbors = 9.775896e+09
Ave neighs/atom = 490.68531
Neighbor list builds = 5
Dangerous builds not checked
Total wall time: 0:00:21
START OF JOBSPEC
{"resources": [{"type": "node", "count": 32, "with": [{"type": "slot", "count": 8, "with": [{"type": "core", "count": 1}, {"type": "gpu", "count": 1}], "label": "task"}]}], "tasks": [{"command": ["lmp", "-k", "on", "g", "8", "-sf", "kk", "-pk", "kokkos", "cuda/aware", "off", "newton", "on", "neigh", "half", "-in", "in.reaxff.hns", "-v", "x", "64", "-v", "y", "32", "-v", "z", "32", "-in", "in.reaxff.hns", "-nocite"], "slot": "task", "count": {"per_slot": 1}}], "attributes": {"system": {"duration": 0, "cwd": "/code", "shell": {"options": {"rlimit": {"cpu": -1, "fsize": -1, "data": -1, "stack": 8388608, "core": -1, "nofile": 1048576, "as": -1, "rss": -1, "nproc": -1}, "cpu-affinity": "per-task"}}}, "user": {"study_id": "lammps-reax-32-iter-3"}}, "version": 1}
START OF EVENTLOG
{"timestamp":1725044842.5295208,"name":"init"}
{"timestamp":1725044842.5306637,"name":"starting"}
{"timestamp":1725044842.5620446,"name":"shell.init","context":{"service":"0-shell-f2BiBeT2P","leader-rank":0,"size":32}}
{"timestamp":1725044842.5834565,"name":"shell.start","context":{"taskmap":{"version":1,"map":[[0,32,8,1]]}}}
{"timestamp":1725044866.2516971,"name":"shell.task-exit","context":{"localid":0,"rank":88,"state":"Exited","pid":202,"wait_status":0,"signaled":0,"exitcode":0}}
{"timestamp":1725044867.0074599,"name":"complete","context":{"status":0}}
{"timestamp":1725044867.0074918,"name":"done"}

