LAMMPS (17 Apr 2024 - Development - a8687b5)
KOKKOS mode with Kokkos version 4.3.1 is enabled (src/KOKKOS/kokkos.cpp:72)
  will use up to 8 GPU(s) per node
WARNING: Turning off GPU-aware MPI since it is not detected, use '-pk kokkos gpu/aware on' to override (src/KOKKOS/kokkos.cpp:291)
  using 1 OpenMP thread(s) per MPI task
Reading data file ...
  triclinic box = (0 0 0) to (22.326 11.1412 13.778966) with tilt (0 -5.02603 0)
  8 by 4 by 4 MPI processor grid
  reading atoms ...
  304 atoms
  reading velocities ...
  304 velocities
  read_data CPU = 0.019 seconds
Replication is creating a 64x32x32 = 65536 times larger system...
  triclinic box = (0 0 0) to (1428.864 356.5184 440.92691) with tilt (0 -160.83296 0)
  8 by 4 by 4 MPI processor grid
  bounding box image = (0 -1 -1) to (0 1 1)
  bounding box extra memory = 0.03 MB
  average # of replicas added to proc = 845.30 out of 65536 (1.29%)
  19922944 atoms
  replicate CPU = 0.124 seconds
Neighbor list info ...
  update: every = 20 steps, delay = 0 steps, check = no
  max neighbors/atom: 2000, page size: 100000
  master list distance cutoff = 11
  ghost atom cutoff = 11
  binsize = 11, bins = 145 33 41
  2 neighbor lists, perpetual/occasional/extra = 2 0 0
  (1) pair reaxff/kk, perpetual
      attributes: half, newton off, ghost, kokkos_device
      pair build: half/bin/newtoff/ghost/kk/device
      stencil: full/ghost/bin/3d
      bin: kk/device
  (2) fix qeq/reax/kk, perpetual
      attributes: full, newton off, kokkos_device
      pair build: full/bin/kk/device
      stencil: full/bin/3d
      bin: kk/device
Setting up Verlet run ...
  Unit style    : real
  Current step  : 0
  Time step     : 0.1
Per MPI rank memory allocation (min/avg/max) = 1866 | 1866 | 1873 Mbytes
   Step          Temp          PotEng         Press          E_vdwl         E_coul         Volume    
         0   300           -113.27833      439.0203      -111.57687     -1.7014647      2.2461536e+08
        10   300.76787     -113.28045      806.94581     -111.57901     -1.7014353      2.2461536e+08
        20   302.41893     -113.28523      1697.8315     -111.5839      -1.701324       2.2461536e+08
        30   302.57545     -113.28557      4298.4906     -111.58447     -1.7010952      2.2461536e+08
        40   300.64331     -113.27974      6396.7718     -111.57897     -1.7007684      2.2461536e+08
        50   297.45505     -113.27019      6484.6813     -111.56979     -1.7004028      2.2461536e+08
        60   294.75204     -113.26209      6200.5375     -111.56205     -1.7000331      2.2461536e+08
        70   294.65379     -113.26175      6838.4462     -111.56209     -1.6996569      2.2461536e+08
        80   297.75343     -113.27097      8234.8606     -111.57169     -1.6992793      2.2461536e+08
        90   301.65876     -113.28261      9374.3756     -111.58366     -1.6989425      2.2461536e+08
       100   302.57975     -113.2853       10365.487     -111.5866      -1.6986993      2.2461536e+08
Loop time of 14.3679 on 128 procs for 100 steps with 19922944 atoms

Performance: 0.060 ns/day, 399.110 hours/ns, 6.960 timesteps/s, 138.662 Matom-step/s
97.8% CPU use with 128 MPI tasks x 1 OpenMP threads

MPI task timing breakdown:
Section |  min time  |  avg time  |  max time  |%varavg| %total
---------------------------------------------------------------
Pair    | 2.4597     | 2.5953     | 2.6572     |   3.5 | 18.06
Neigh   | 0.17696    | 0.29678    | 0.38972    |  11.5 |  2.07
Comm    | 1.2187     | 1.2881     | 1.4232     |   5.1 |  8.96
Output  | 0.018251   | 0.027042   | 0.036045   |   2.4 |  0.19
Modify  | 10.005     | 10.098     | 10.219     |   1.9 | 70.28
Other   |            | 0.06225    |            |       |  0.43

Nlocal:         155648 ave      155699 max      155621 min
Histogram: 11 20 30 28 12 11 7 6 2 1
Nghost:         106806 ave      106869 max      106747 min
Histogram: 8 8 9 16 23 28 17 10 1 8
Neighs:    4.22133e+07 ave 4.22266e+07 max 4.22056e+07 min
Histogram: 10 17 24 25 21 11 11 4 4 1
FullNghs:  7.63742e+07 ave 7.63989e+07 max 7.63606e+07 min
Histogram: 13 18 24 28 16 10 10 5 3 1

Total # of neighbors = 9.775896e+09
Ave neighs/atom = 490.68531
Neighbor list builds = 5
Dangerous builds not checked
Total wall time: 0:00:17
START OF JOBSPEC
{"resources": [{"type": "node", "count": 16, "with": [{"type": "slot", "count": 8, "with": [{"type": "core", "count": 1}, {"type": "gpu", "count": 1}], "label": "task"}]}], "tasks": [{"command": ["lmp", "-k", "on", "g", "8", "-sf", "kk", "-pk", "kokkos", "cuda/aware", "off", "newton", "on", "neigh", "half", "-in", "in.reaxff.hns", "-v", "x", "64", "-v", "y", "32", "-v", "z", "32", "-in", "in.reaxff.hns", "-nocite"], "slot": "task", "count": {"per_slot": 1}}], "attributes": {"system": {"duration": 0, "cwd": "/code/lammps/examples/reaxff/HNS", "shell": {"options": {"rlimit": {"cpu": -1, "fsize": -1, "data": -1, "stack": 8388608, "core": -1, "nofile": 1048576, "as": -1, "rss": -1, "nproc": -1}, "cpu-affinity": "per-task"}}}, "user": {"study_id": "lammps-reax-16-iter-5"}}, "version": 1}
START OF EVENTLOG
{"timestamp":1725091102.3667865,"name":"init"}
{"timestamp":1725091102.367615,"name":"starting"}
{"timestamp":1725091102.3877776,"name":"shell.init","context":{"service":"0-shell-f2y6pu7VZ","leader-rank":0,"size":16}}
{"timestamp":1725091102.4173901,"name":"shell.start","context":{"taskmap":{"version":1,"map":[[0,16,8,1]]}}}
{"timestamp":1725091121.4169254,"name":"shell.task-exit","context":{"localid":0,"rank":40,"state":"Exited","pid":460,"wait_status":0,"signaled":0,"exitcode":0}}
{"timestamp":1725091121.7185218,"name":"complete","context":{"status":0}}
{"timestamp":1725091121.7185497,"name":"done"}

