Start time: 1725154369
WARNING on proc 0: Cannot open log.lammps for writing: Read-only file system (src/lammps.cpp:511)
LAMMPS (17 Apr 2024 - Development - a8687b5)
OMP_NUM_THREADS environment is not set. Defaulting to 1 thread. (src/comm.cpp:98)
  using 1 OpenMP thread(s) per MPI task
Reading data file ...
  triclinic box = (0 0 0) to (22.326 11.1412 13.778966) with tilt (0 -5.02603 0)
  32 by 24 by 32 MPI processor grid
  reading atoms ...
  304 atoms
  reading velocities ...
  304 velocities
  read_data CPU = 0.220 seconds
Replication is creating a 64x64x32 = 131072 times larger system...
  triclinic box = (0 0 0) to (1428.864 713.0368 440.92691) with tilt (0 -160.83296 0)
  48 by 32 by 16 MPI processor grid
  bounding box image = (0 -1 -1) to (0 1 1)
  bounding box extra memory = 0.03 MB
  average # of replicas added to proc = 32.89 out of 131072 (0.03%)
  39845888 atoms
  replicate CPU = 0.345 seconds

CITE-CITE-CITE-CITE-CITE-CITE-CITE-CITE-CITE-CITE-CITE-CITE-CITE

Your simulation uses code contributions which should be cited:
- pair reaxff command: doi:10.1016/j.parco.2011.08.005
- fix qeq/reaxff command: doi:10.1016/j.parco.2011.08.005
The log file lists these citations in BibTeX format.

CITE-CITE-CITE-CITE-CITE-CITE-CITE-CITE-CITE-CITE-CITE-CITE-CITE

Neighbor list info ...
  update: every = 20 steps, delay = 0 steps, check = no
  max neighbors/atom: 2000, page size: 100000
  master list distance cutoff = 11
  ghost atom cutoff = 11
  binsize = 5.5, bins = 290 130 81
  2 neighbor lists, perpetual/occasional/extra = 2 0 0
  (1) pair reaxff, perpetual
      attributes: half, newton off, ghost
      pair build: half/bin/ghost/newtoff
      stencil: full/ghost/bin/3d
      bin: standard
  (2) fix qeq/reax, perpetual, copy from (1)
      attributes: half, newton off
      pair build: copy
      stencil: none
      bin: none
Setting up Verlet run ...
  Unit style    : real
  Current step  : 0
  Time step     : 0.1
Per MPI rank memory allocation (min/avg/max) = 166.2 | 167.8 | 170.5 Mbytes
   Step          Temp          PotEng         Press          E_vdwl         E_coul         Volume    
         0   300           -113.27833      439.02048     -111.57687     -1.7014647      4.4923072e+08
        10   300.76708     -113.28045      807.30077     -111.57901     -1.7014362      4.4923072e+08
        20   302.42351     -113.28524      1696.9908     -111.58392     -1.7013253      4.4923072e+08
        30   302.57588     -113.28557      4297.9273     -111.58447     -1.7010962      4.4923072e+08
        40   300.62223     -113.27967      6393.3854     -111.5789      -1.7007688      4.4923072e+08
        50   297.4189      -113.27008      6471.1497     -111.56968     -1.7004026      4.4923072e+08
        60   294.72952     -113.26202      6185.6329     -111.56199     -1.7000319      4.4923072e+08
        70   294.6668      -113.26179      6831.1904     -111.56213     -1.6996547      4.4923072e+08
        80   297.78808     -113.27107      8233.8978     -111.5718      -1.699276       4.4923072e+08
        90   301.67957     -113.28267      9372.1055     -111.58373     -1.6989385      4.4923072e+08
       100   302.5651      -113.28525      10370.56      -111.58656     -1.698695       4.4923072e+08
Loop time of 110.24 on 24576 procs for 100 steps with 39845888 atoms

Performance: 0.008 ns/day, 3062.231 hours/ns, 0.907 timesteps/s, 36.145 Matom-step/s
99.8% CPU use with 24576 MPI tasks x 1 OpenMP threads

MPI task timing breakdown:
Section |  min time  |  avg time  |  max time  |%varavg| %total
---------------------------------------------------------------
Pair    | 10.616     | 12.906     | 14.701     |  13.7 | 11.71
Neigh   | 0.22184    | 0.23805    | 0.31157    |   1.1 |  0.22
Comm    | 0.034918   | 1.7574     | 41.709     | 339.8 |  1.59
Output  | 0.4676     | 0.64671    | 0.71345    |   3.3 |  0.59
Modify  | 56.109     | 94.689     | 95.816     |  45.8 | 85.89
Other   |            | 0.002495   |            |       |  0.00

Nlocal:        1621.33 ave        1673 max        1585 min
Histogram: 1494 7414 6829 647 0 0 0 349 6717 1126
Nghost:        8636.03 ave        8813 max        8524 min
Histogram: 5794 10029 561 0 0 0 0 0 2617 5575
Neighs:         562784 ave      578427 max      550985 min
Histogram: 937 6809 6178 2443 17 0 0 302 6538 1352

Total # of neighbors = 1.3830972e+10
Ave neighs/atom = 347.11164
Neighbor list builds = 5
Dangerous builds not checked
Total wall time: 0:01:53
End time: 1725154497
