Start time: 1725154663
WARNING on proc 0: Cannot open log.lammps for writing: Read-only file system (src/lammps.cpp:511)
LAMMPS (17 Apr 2024 - Development - a8687b5)
OMP_NUM_THREADS environment is not set. Defaulting to 1 thread. (src/comm.cpp:98)
  using 1 OpenMP thread(s) per MPI task
Reading data file ...
  triclinic box = (0 0 0) to (22.326 11.1412 13.778966) with tilt (0 -5.02603 0)
  32 by 24 by 32 MPI processor grid
  reading atoms ...
  304 atoms
  reading velocities ...
  304 velocities
  read_data CPU = 0.328 seconds
Replication is creating a 64x64x32 = 131072 times larger system...
  triclinic box = (0 0 0) to (1428.864 713.0368 440.92691) with tilt (0 -160.83296 0)
  48 by 32 by 16 MPI processor grid
  bounding box image = (0 -1 -1) to (0 1 1)
  bounding box extra memory = 0.03 MB
  average # of replicas added to proc = 32.89 out of 131072 (0.03%)
  39845888 atoms
  replicate CPU = 0.333 seconds

CITE-CITE-CITE-CITE-CITE-CITE-CITE-CITE-CITE-CITE-CITE-CITE-CITE

Your simulation uses code contributions which should be cited:
- pair reaxff command: doi:10.1016/j.parco.2011.08.005
- fix qeq/reaxff command: doi:10.1016/j.parco.2011.08.005
The log file lists these citations in BibTeX format.

CITE-CITE-CITE-CITE-CITE-CITE-CITE-CITE-CITE-CITE-CITE-CITE-CITE

Neighbor list info ...
  update: every = 20 steps, delay = 0 steps, check = no
  max neighbors/atom: 2000, page size: 100000
  master list distance cutoff = 11
  ghost atom cutoff = 11
  binsize = 5.5, bins = 290 130 81
  2 neighbor lists, perpetual/occasional/extra = 2 0 0
  (1) pair reaxff, perpetual
      attributes: half, newton off, ghost
      pair build: half/bin/ghost/newtoff
      stencil: full/ghost/bin/3d
      bin: standard
  (2) fix qeq/reax, perpetual, copy from (1)
      attributes: half, newton off
      pair build: copy
      stencil: none
      bin: none
Setting up Verlet run ...
  Unit style    : real
  Current step  : 0
  Time step     : 0.1
Per MPI rank memory allocation (min/avg/max) = 166.2 | 167.8 | 170.5 Mbytes
   Step          Temp          PotEng         Press          E_vdwl         E_coul         Volume    
         0   300           -113.27833      439.02048     -111.57687     -1.7014647      4.4923072e+08
        10   300.76708     -113.28045      807.30077     -111.57901     -1.7014362      4.4923072e+08
        20   302.42351     -113.28524      1696.9908     -111.58392     -1.7013253      4.4923072e+08
        30   302.57588     -113.28557      4297.9273     -111.58447     -1.7010962      4.4923072e+08
        40   300.62223     -113.27967      6393.3854     -111.5789      -1.7007688      4.4923072e+08
        50   297.4189      -113.27008      6471.1497     -111.56968     -1.7004026      4.4923072e+08
        60   294.72952     -113.26202      6185.6329     -111.56199     -1.7000319      4.4923072e+08
        70   294.6668      -113.26179      6831.1904     -111.56213     -1.6996547      4.4923072e+08
        80   297.78808     -113.27107      8233.8978     -111.5718      -1.699276       4.4923072e+08
        90   301.67957     -113.28267      9372.1055     -111.58373     -1.6989385      4.4923072e+08
       100   302.5651      -113.28525      10370.56      -111.58656     -1.698695       4.4923072e+08
Loop time of 80.7932 on 24576 procs for 100 steps with 39845888 atoms

Performance: 0.011 ns/day, 2244.257 hours/ns, 1.238 timesteps/s, 49.318 Matom-step/s
99.8% CPU use with 24576 MPI tasks x 1 OpenMP threads

MPI task timing breakdown:
Section |  min time  |  avg time  |  max time  |%varavg| %total
---------------------------------------------------------------
Pair    | 10.688     | 12.902     | 17.611     |  13.7 | 15.97
Neigh   | 0.22207    | 0.23807    | 0.31317    |   1.1 |  0.29
Comm    | 0.041417   | 1.2525     | 6.4056     |  57.3 |  1.55
Output  | 0.86185    | 1.1875     | 1.2529     |   2.8 |  1.47
Modify  | 61.922     | 65.196     | 65.774     |   4.3 | 80.70
Other   |            | 0.01732    |            |       |  0.02

Nlocal:        1621.33 ave        1673 max        1585 min
Histogram: 1494 7414 6829 647 0 0 0 349 6717 1126
Nghost:        8636.03 ave        8813 max        8524 min
Histogram: 5794 10029 561 0 0 0 0 0 2617 5575
Neighs:         562784 ave      578427 max      550985 min
Histogram: 937 6809 6178 2443 17 0 0 302 6538 1352

Total # of neighbors = 1.3830972e+10
Ave neighs/atom = 347.11164
Neighbor list builds = 5
Dangerous builds not checked
Total wall time: 0:01:24
[1725154761.055413] [cluster-256-hpc-256:71481:0]        mm_posix.c:291  UCX  ERROR shm_unlink(/ucx_shm_posix_74d77d64) failed: No such file or directory
[1725154761.055537] [cluster-256-hpc-256:71481:0]        mm_posix.c:291  UCX  ERROR shm_unlink(/ucx_shm_posix_209f287f) failed: No such file or directory
[1725154761.055901] [cluster-256-hpc-256:72684:0]        mm_posix.c:291  UCX  ERROR shm_unlink(/ucx_shm_posix_4629bd19) failed: No such file or directory
[1725154761.056022] [cluster-256-hpc-256:72684:0]        mm_posix.c:291  UCX  ERROR shm_unlink(/ucx_shm_posix_198a30fd) failed: No such file or directory
[1725154761.055874] [cluster-256-hpc-256:72685:0]        mm_posix.c:291  UCX  ERROR shm_unlink(/ucx_shm_posix_3cc26ce6) failed: No such file or directory
[1725154761.056006] [cluster-256-hpc-256:72685:0]        mm_posix.c:291  UCX  ERROR shm_unlink(/ucx_shm_posix_3271c757) failed: No such file or directory
[1725154761.055883] [cluster-256-hpc-256:72729:0]        mm_posix.c:291  UCX  ERROR shm_unlink(/ucx_shm_posix_698a6f99) failed: No such file or directory
[1725154761.056089] [cluster-256-hpc-256:72729:0]        mm_posix.c:291  UCX  ERROR shm_unlink(/ucx_shm_posix_39e9549b) failed: No such file or directory
[1725154761.055878] [cluster-256-hpc-256:72765:0]        mm_posix.c:291  UCX  ERROR shm_unlink(/ucx_shm_posix_484e76a8) failed: No such file or directory
[1725154761.056170] [cluster-256-hpc-256:72765:0]        mm_posix.c:291  UCX  ERROR shm_unlink(/ucx_shm_posix_20e94581) failed: No such file or directory
[1725154761.055831] [cluster-256-hpc-256:72787:0]        mm_posix.c:291  UCX  ERROR shm_unlink(/ucx_shm_posix_1059699f) failed: No such file or directory
[1725154761.055905] [cluster-256-hpc-256:72787:0]        mm_posix.c:291  UCX  ERROR shm_unlink(/ucx_shm_posix_74253065) failed: No such file or directory
[1725154761.055977] [cluster-256-hpc-256:72830:0]        mm_posix.c:291  UCX  ERROR shm_unlink(/ucx_shm_posix_2ebee20) failed: No such file or directory
[1725154761.056096] [cluster-256-hpc-256:72830:0]        mm_posix.c:291  UCX  ERROR shm_unlink(/ucx_shm_posix_204b78f0) failed: No such file or directory
[1725154761.055900] [cluster-256-hpc-256:72827:0]        mm_posix.c:291  UCX  ERROR shm_unlink(/ucx_shm_posix_79238dd0) failed: No such file or directory
[1725154761.056083] [cluster-256-hpc-256:72827:0]        mm_posix.c:291  UCX  ERROR shm_unlink(/ucx_shm_posix_7a79ddd3) failed: No such file or directory
[1725154761.055884] [cluster-256-hpc-256:72885:0]        mm_posix.c:291  UCX  ERROR shm_unlink(/ucx_shm_posix_34d957c5) failed: No such file or directory
[1725154761.056113] [cluster-256-hpc-256:72885:0]        mm_posix.c:291  UCX  ERROR shm_unlink(/ucx_shm_posix_2372e73) failed: No such file or directory
[1725154761.055568] [cluster-256-hpc-256:71423:0]        mm_posix.c:291  UCX  ERROR shm_unlink(/ucx_shm_posix_7dba10e0) failed: No such file or directory
[1725154761.055676] [cluster-256-hpc-256:71423:0]        mm_posix.c:291  UCX  ERROR shm_unlink(/ucx_shm_posix_27aa88b0) failed: No such file or directory
[1725154761.055628] [cluster-256-hpc-256:71422:0]        mm_posix.c:291  UCX  ERROR shm_unlink(/ucx_shm_posix_6e2aa24a) failed: No such file or directory
[1725154761.055828] [cluster-256-hpc-256:71422:0]        mm_posix.c:291  UCX  ERROR shm_unlink(/ucx_shm_posix_5cfb95ff) failed: No such file or directory
[1725154761.055657] [cluster-256-hpc-256:71424:0]        mm_posix.c:291  UCX  ERROR shm_unlink(/ucx_shm_posix_19957086) failed: No such file or directory
[1725154761.055800] [cluster-256-hpc-256:71424:0]        mm_posix.c:291  UCX  ERROR shm_unlink(/ucx_shm_posix_6911ccff) failed: No such file or directory
[1725154761.055718] [cluster-256-hpc-256:71430:0]        mm_posix.c:291  UCX  ERROR shm_unlink(/ucx_shm_posix_5e48b3d4) failed: No such file or directory
[1725154761.055927] [cluster-256-hpc-256:71430:0]        mm_posix.c:291  UCX  ERROR shm_unlink(/ucx_shm_posix_c37992a) failed: No such file or directory
[1725154761.055713] [cluster-256-hpc-256:71652:0]        mm_posix.c:291  UCX  ERROR shm_unlink(/ucx_shm_posix_5c0e6009) failed: No such file or directory
[1725154761.056059] [cluster-256-hpc-256:71652:0]        mm_posix.c:291  UCX  ERROR shm_unlink(/ucx_shm_posix_7c783629) failed: No such file or directory
[1725154761.055774] [cluster-256-hpc-256:71500:0]        mm_posix.c:291  UCX  ERROR shm_unlink(/ucx_shm_posix_7f114324) failed: No such file or directory
[1725154761.056081] [cluster-256-hpc-256:71500:0]        mm_posix.c:291  UCX  ERROR shm_unlink(/ucx_shm_posix_759134b2) failed: No such file or directory
[1725154761.055716] [cluster-256-hpc-256:71483:0]        mm_posix.c:291  UCX  ERROR shm_unlink(/ucx_shm_posix_55593c79) failed: No such file or directory
[1725154761.056034] [cluster-256-hpc-256:71483:0]        mm_posix.c:291  UCX  ERROR shm_unlink(/ucx_shm_posix_2f95a11e) failed: No such file or directory
[1725154761.055592] [cluster-256-hpc-256:71774:0]        mm_posix.c:291  UCX  ERROR shm_unlink(/ucx_shm_posix_4983a169) failed: No such file or directory
[1725154761.055884] [cluster-256-hpc-256:71774:0]        mm_posix.c:291  UCX  ERROR shm_unlink(/ucx_shm_posix_12534c56) failed: No such file or directory
[1725154761.055785] [cluster-256-hpc-256:71677:0]        mm_posix.c:291  UCX  ERROR shm_unlink(/ucx_shm_posix_22b820d8) failed: No such file or directory
[1725154761.056062] [cluster-256-hpc-256:71677:0]        mm_posix.c:291  UCX  ERROR shm_unlink(/ucx_shm_posix_13267249) failed: No such file or directory
[1725154761.055779] [cluster-256-hpc-256:71675:0]        mm_posix.c:291  UCX  ERROR shm_unlink(/ucx_shm_posix_39bcdfd0) failed: No such file or directory
[1725154761.055961] [cluster-256-hpc-256:71675:0]        mm_posix.c:291  UCX  ERROR shm_unlink(/ucx_shm_posix_5ac2301b) failed: No such file or directory
[1725154761.055791] [cluster-256-hpc-256:71738:0]        mm_posix.c:291  UCX  ERROR shm_unlink(/ucx_shm_posix_28d3451) failed: No such file or directory
[1725154761.056093] [cluster-256-hpc-256:71738:0]        mm_posix.c:291  UCX  ERROR shm_unlink(/ucx_shm_posix_6ffa776e) failed: No such file or directory
[1725154761.055890] [cluster-256-hpc-256:71864:0]        mm_posix.c:291  UCX  ERROR shm_unlink(/ucx_shm_posix_6df22395) failed: No such file or directory
[1725154761.056177] [cluster-256-hpc-256:71864:0]        mm_posix.c:291  UCX  ERROR shm_unlink(/ucx_shm_posix_6fc25c17) failed: No such file or directory
[1725154761.055786] [cluster-256-hpc-256:71812:0]        mm_posix.c:291  UCX  ERROR shm_unlink(/ucx_shm_posix_61f740a) failed: No such file or directory
[1725154761.055987] [cluster-256-hpc-256:71812:0]        mm_posix.c:291  UCX  ERROR shm_unlink(/ucx_shm_posix_20f85591) failed: No such file or directory
[1725154761.055732] [cluster-256-hpc-256:71820:0]        mm_posix.c:291  UCX  ERROR shm_unlink(/ucx_shm_posix_5022e719) failed: No such file or directory
[1725154761.055938] [cluster-256-hpc-256:71820:0]        mm_posix.c:291  UCX  ERROR shm_unlink(/ucx_shm_posix_5ab47191) failed: No such file or directory
[1725154761.055813] [cluster-256-hpc-256:71894:0]        mm_posix.c:291  UCX  ERROR shm_unlink(/ucx_shm_posix_659d7e19) failed: No such file or directory
[1725154761.055886] [cluster-256-hpc-256:71894:0]        mm_posix.c:291  UCX  ERROR shm_unlink(/ucx_shm_posix_72913579) failed: No such file or directory
[1725154761.055849] [cluster-256-hpc-256:71968:0]        mm_posix.c:291  UCX  ERROR shm_unlink(/ucx_shm_posix_251774c3) failed: No such file or directory
[1725154761.056163] [cluster-256-hpc-256:71968:0]        mm_posix.c:291  UCX  ERROR shm_unlink(/ucx_shm_posix_473567a3) failed: No such file or directory
[1725154761.055781] [cluster-256-hpc-256:71876:0]        mm_posix.c:291  UCX  ERROR shm_unlink(/ucx_shm_posix_96f5237) failed: No such file or directory
[1725154761.055971] [cluster-256-hpc-256:71876:0]        mm_posix.c:291  UCX  ERROR shm_unlink(/ucx_shm_posix_6c9cb41e) failed: No such file or directory
[1725154761.055827] [cluster-256-hpc-256:71942:0]        mm_posix.c:291  UCX  ERROR shm_unlink(/ucx_shm_posix_2d37ec64) failed: No such file or directory
[1725154761.055975] [cluster-256-hpc-256:71942:0]        mm_posix.c:291  UCX  ERROR shm_unlink(/ucx_shm_posix_719b8cd5) failed: No such file or directory
[1725154761.055760] [cluster-256-hpc-256:71963:0]        mm_posix.c:291  UCX  ERROR shm_unlink(/ucx_shm_posix_58d48cc3) failed: No such file or directory
[1725154761.056001] [cluster-256-hpc-256:71963:0]        mm_posix.c:291  UCX  ERROR shm_unlink(/ucx_shm_posix_36cd81e8) failed: No such file or directory
[1725154761.055799] [cluster-256-hpc-256:72088:0]        mm_posix.c:291  UCX  ERROR shm_unlink(/ucx_shm_posix_276ffc14) failed: No such file or directory
[1725154761.056065] [cluster-256-hpc-256:72088:0]        mm_posix.c:291  UCX  ERROR shm_unlink(/ucx_shm_posix_4c070e36) failed: No such file or directory
[1725154761.055906] [cluster-256-hpc-256:71988:0]        mm_posix.c:291  UCX  ERROR shm_unlink(/ucx_shm_posix_c10f8ff) failed: No such file or directory
[1725154761.056051] [cluster-256-hpc-256:71988:0]        mm_posix.c:291  UCX  ERROR shm_unlink(/ucx_shm_posix_74b2b6c0) failed: No such file or directory
[1725154761.055829] [cluster-256-hpc-256:71991:0]        mm_posix.c:291  UCX  ERROR shm_unlink(/ucx_shm_posix_c2ddcea) failed: No such file or directory
[1725154761.055966] [cluster-256-hpc-256:71991:0]        mm_posix.c:291  UCX  ERROR shm_unlink(/ucx_shm_posix_1959a3c3) failed: No such file or directory
[1725154761.055991] [cluster-256-hpc-256:72009:0]        mm_posix.c:291  UCX  ERROR shm_unlink(/ucx_shm_posix_6ffb717b) failed: No such file or directory
[1725154761.056100] [cluster-256-hpc-256:72009:0]        mm_posix.c:291  UCX  ERROR shm_unlink(/ucx_shm_posix_35c91ccc) failed: No such file or directory
[1725154761.055790] [cluster-256-hpc-256:72181:0]        mm_posix.c:291  UCX  ERROR shm_unlink(/ucx_shm_posix_345dae56) failed: No such file or directory
[1725154761.056056] [cluster-256-hpc-256:72181:0]        mm_posix.c:291  UCX  ERROR shm_unlink(/ucx_shm_posix_4499933) failed: No such file or directory
[1725154761.055840] [cluster-256-hpc-256:72089:0]        mm_posix.c:291  UCX  ERROR shm_unlink(/ucx_shm_posix_1d063b18) failed: No such file or directory
[1725154761.056004] [cluster-256-hpc-256:72089:0]        mm_posix.c:291  UCX  ERROR shm_unlink(/ucx_shm_posix_389a1a3c) failed: No such file or directory
[1725154761.055908] [cluster-256-hpc-256:72090:0]        mm_posix.c:291  UCX  ERROR shm_unlink(/ucx_shm_posix_1b60a1d0) failed: No such file or directory
[1725154761.055999] [cluster-256-hpc-256:72090:0]        mm_posix.c:291  UCX  ERROR shm_unlink(/ucx_shm_posix_43c5598f) failed: No such file or directory
[1725154761.055896] [cluster-256-hpc-256:72184:0]        mm_posix.c:291  UCX  ERROR shm_unlink(/ucx_shm_posix_1bd3b12a) failed: No such file or directory
[1725154761.056079] [cluster-256-hpc-256:72184:0]        mm_posix.c:291  UCX  ERROR shm_unlink(/ucx_shm_posix_6406f0a5) failed: No such file or directory
[1725154761.055909] [cluster-256-hpc-256:72288:0]        mm_posix.c:291  UCX  ERROR shm_unlink(/ucx_shm_posix_321a3531) failed: No such file or directory
[1725154761.056184] [cluster-256-hpc-256:72288:0]        mm_posix.c:291  UCX  ERROR shm_unlink(/ucx_shm_posix_324d1bf7) failed: No such file or directory
[1725154761.055881] [cluster-256-hpc-256:72182:0]        mm_posix.c:291  UCX  ERROR shm_unlink(/ucx_shm_posix_453a9778) failed: No such file or directory
[1725154761.056076] [cluster-256-hpc-256:72182:0]        mm_posix.c:291  UCX  ERROR shm_unlink(/ucx_shm_posix_2ef47f13) failed: No such file or directory
[1725154761.055944] [cluster-256-hpc-256:72186:0]        mm_posix.c:291  UCX  ERROR shm_unlink(/ucx_shm_posix_2e2e967d) failed: No such file or directory
[1725154761.056033] [cluster-256-hpc-256:72186:0]        mm_posix.c:291  UCX  ERROR shm_unlink(/ucx_shm_posix_5ecc3094) failed: No such file or directory
[1725154761.055843] [cluster-256-hpc-256:72286:0]        mm_posix.c:291  UCX  ERROR shm_unlink(/ucx_shm_posix_11e0e6c1) failed: No such file or directory
[1725154761.055993] [cluster-256-hpc-256:72286:0]        mm_posix.c:291  UCX  ERROR shm_unlink(/ucx_shm_posix_4bc08250) failed: No such file or directory
[1725154761.055854] [cluster-256-hpc-256:72261:0]        mm_posix.c:291  UCX  ERROR shm_unlink(/ucx_shm_posix_28d59006) failed: No such file or directory
[1725154761.055981] [cluster-256-hpc-256:72261:0]        mm_posix.c:291  UCX  ERROR shm_unlink(/ucx_shm_posix_144c54d0) failed: No such file or directory
[1725154761.055821] [cluster-256-hpc-256:72287:0]        mm_posix.c:291  UCX  ERROR shm_unlink(/ucx_shm_posix_16ed263e) failed: No such file or directory
[1725154761.056009] [cluster-256-hpc-256:72287:0]        mm_posix.c:291  UCX  ERROR shm_unlink(/ucx_shm_posix_3d836f23) failed: No such file or directory
[1725154761.055999] [cluster-256-hpc-256:72367:0]        mm_posix.c:291  UCX  ERROR shm_unlink(/ucx_shm_posix_30f678b) failed: No such file or directory
[1725154761.056226] [cluster-256-hpc-256:72367:0]        mm_posix.c:291  UCX  ERROR shm_unlink(/ucx_shm_posix_55c45945) failed: No such file or directory
[1725154761.055810] [cluster-256-hpc-256:72468:0]        mm_posix.c:291  UCX  ERROR shm_unlink(/ucx_shm_posix_51ebd937) failed: No such file or directory
[1725154761.055910] [cluster-256-hpc-256:72468:0]        mm_posix.c:291  UCX  ERROR shm_unlink(/ucx_shm_posix_551711e1) failed: No such file or directory
[1725154761.056019] [cluster-256-hpc-256:72504:0]        mm_posix.c:291  UCX  ERROR shm_unlink(/ucx_shm_posix_2701b836) failed: No such file or directory
[1725154761.056102] [cluster-256-hpc-256:72504:0]        mm_posix.c:291  UCX  ERROR shm_unlink(/ucx_shm_posix_33114d62) failed: No such file or directory
[1725154761.056003] [cluster-256-hpc-256:72511:0]        mm_posix.c:291  UCX  ERROR shm_unlink(/ucx_shm_posix_74f916a3) failed: No such file or directory
[1725154761.056111] [cluster-256-hpc-256:72511:0]        mm_posix.c:291  UCX  ERROR shm_unlink(/ucx_shm_posix_c8e8442) failed: No such file or directory
[1725154761.055985] [cluster-256-hpc-256:72576:0]        mm_posix.c:291  UCX  ERROR shm_unlink(/ucx_shm_posix_480d955b) failed: No such file or directory
[1725154761.056129] [cluster-256-hpc-256:72576:0]        mm_posix.c:291  UCX  ERROR shm_unlink(/ucx_shm_posix_70fc359a) failed: No such file or directory
[1725154761.055960] [cluster-256-hpc-256:72564:0]        mm_posix.c:291  UCX  ERROR shm_unlink(/ucx_shm_posix_7969bbfa) failed: No such file or directory
[1725154761.056040] [cluster-256-hpc-256:72564:0]        mm_posix.c:291  UCX  ERROR shm_unlink(/ucx_shm_posix_2b5dd5d9) failed: No such file or directory
[1725154761.055837] [cluster-256-hpc-256:72626:0]        mm_posix.c:291  UCX  ERROR shm_unlink(/ucx_shm_posix_ca6a5f5) failed: No such file or directory
[1725154761.056053] [cluster-256-hpc-256:72626:0]        mm_posix.c:291  UCX  ERROR shm_unlink(/ucx_shm_posix_3f5376cf) failed: No such file or directory
[1725154761.056409] [cluster-256-hpc-256:73330:0]        mm_posix.c:291  UCX  ERROR shm_unlink(/ucx_shm_posix_3967beca) failed: No such file or directory
[1725154761.056505] [cluster-256-hpc-256:73330:0]        mm_posix.c:291  UCX  ERROR shm_unlink(/ucx_shm_posix_7aca4ce6) failed: No such file or directory
[1725154761.056297] [cluster-256-hpc-256:73354:0]        mm_posix.c:291  UCX  ERROR shm_unlink(/ucx_shm_posix_65cb666b) failed: No such file or directory
[1725154761.056385] [cluster-256-hpc-256:73354:0]        mm_posix.c:291  UCX  ERROR shm_unlink(/ucx_shm_posix_5bcaa876) failed: No such file or directory
[1725154761.056385] [cluster-256-hpc-256:73356:0]        mm_posix.c:291  UCX  ERROR shm_unlink(/ucx_shm_posix_6b25532b) failed: No such file or directory
[1725154761.056475] [cluster-256-hpc-256:73356:0]        mm_posix.c:291  UCX  ERROR shm_unlink(/ucx_shm_posix_1eac70ab) failed: No such file or directory
[1725154761.056259] [cluster-256-hpc-256:73387:0]        mm_posix.c:291  UCX  ERROR shm_unlink(/ucx_shm_posix_300b98f1) failed: No such file or directory
[1725154761.056495] [cluster-256-hpc-256:73387:0]        mm_posix.c:291  UCX  ERROR shm_unlink(/ucx_shm_posix_1beb719) failed: No such file or directory
[1725154761.056278] [cluster-256-hpc-256:73408:0]        mm_posix.c:291  UCX  ERROR shm_unlink(/ucx_shm_posix_6bc6fbf2) failed: No such file or directory
[1725154761.056452] [cluster-256-hpc-256:73408:0]        mm_posix.c:291  UCX  ERROR shm_unlink(/ucx_shm_posix_a098fd7) failed: No such file or directory
[1725154761.056287] [cluster-256-hpc-256:73456:0]        mm_posix.c:291  UCX  ERROR shm_unlink(/ucx_shm_posix_3b1d7ee0) failed: No such file or directory
[1725154761.056387] [cluster-256-hpc-256:73456:0]        mm_posix.c:291  UCX  ERROR shm_unlink(/ucx_shm_posix_25a13a94) failed: No such file or directory
[1725154761.056405] [cluster-256-hpc-256:73492:0]        mm_posix.c:291  UCX  ERROR shm_unlink(/ucx_shm_posix_2c468d77) failed: No such file or directory
[1725154761.056491] [cluster-256-hpc-256:73492:0]        mm_posix.c:291  UCX  ERROR shm_unlink(/ucx_shm_posix_7043d080) failed: No such file or directory
[1725154761.056367] [cluster-256-hpc-256:73510:0]        mm_posix.c:291  UCX  ERROR shm_unlink(/ucx_shm_posix_5420dacc) failed: No such file or directory
[1725154761.056517] [cluster-256-hpc-256:73510:0]        mm_posix.c:291  UCX  ERROR shm_unlink(/ucx_shm_posix_419d995c) failed: No such file or directory
[1725154761.056243] [cluster-256-hpc-256:73540:0]        mm_posix.c:291  UCX  ERROR shm_unlink(/ucx_shm_posix_1efc5eed) failed: No such file or directory
[1725154761.056497] [cluster-256-hpc-256:73540:0]        mm_posix.c:291  UCX  ERROR shm_unlink(/ucx_shm_posix_780e3df) failed: No such file or directory
[1725154761.056355] [cluster-256-hpc-256:73582:0]        mm_posix.c:291  UCX  ERROR shm_unlink(/ucx_shm_posix_ea63ee0) failed: No such file or directory
[1725154761.056426] [cluster-256-hpc-256:73582:0]        mm_posix.c:291  UCX  ERROR shm_unlink(/ucx_shm_posix_7fb8c6ec) failed: No such file or directory
[1725154761.056325] [cluster-256-hpc-256:73558:0]        mm_posix.c:291  UCX  ERROR shm_unlink(/ucx_shm_posix_7f7ad3e) failed: No such file or directory
[1725154761.056434] [cluster-256-hpc-256:73558:0]        mm_posix.c:291  UCX  ERROR shm_unlink(/ucx_shm_posix_46526602) failed: No such file or directory
[1725154761.056475] [cluster-256-hpc-256:73619:0]        mm_posix.c:291  UCX  ERROR shm_unlink(/ucx_shm_posix_6e06c8d7) failed: No such file or directory
[1725154761.056553] [cluster-256-hpc-256:73619:0]        mm_posix.c:291  UCX  ERROR shm_unlink(/ucx_shm_posix_350e5732) failed: No such file or directory
[1725154761.056254] [cluster-256-hpc-256:73647:0]        mm_posix.c:291  UCX  ERROR shm_unlink(/ucx_shm_posix_4f394bbe) failed: No such file or directory
[1725154761.056504] [cluster-256-hpc-256:73647:0]        mm_posix.c:291  UCX  ERROR shm_unlink(/ucx_shm_posix_4d3568d5) failed: No such file or directory
[1725154761.056308] [cluster-256-hpc-256:73667:0]        mm_posix.c:291  UCX  ERROR shm_unlink(/ucx_shm_posix_5b31e3f8) failed: No such file or directory
[1725154761.056399] [cluster-256-hpc-256:73667:0]        mm_posix.c:291  UCX  ERROR shm_unlink(/ucx_shm_posix_73700c91) failed: No such file or directory
[1725154761.056314] [cluster-256-hpc-256:73663:0]        mm_posix.c:291  UCX  ERROR shm_unlink(/ucx_shm_posix_2b75158a) failed: No such file or directory
[1725154761.056468] [cluster-256-hpc-256:73663:0]        mm_posix.c:291  UCX  ERROR shm_unlink(/ucx_shm_posix_24c74af1) failed: No such file or directory
[1725154761.056299] [cluster-256-hpc-256:73753:0]        mm_posix.c:291  UCX  ERROR shm_unlink(/ucx_shm_posix_376fbf91) failed: No such file or directory
[1725154761.056508] [cluster-256-hpc-256:73753:0]        mm_posix.c:291  UCX  ERROR shm_unlink(/ucx_shm_posix_775a18b5) failed: No such file or directory
[1725154761.056506] [cluster-256-hpc-256:73747:0]        mm_posix.c:291  UCX  ERROR shm_unlink(/ucx_shm_posix_7938f54d) failed: No such file or directory
[1725154761.056570] [cluster-256-hpc-256:73747:0]        mm_posix.c:291  UCX  ERROR shm_unlink(/ucx_shm_posix_3ce650bd) failed: No such file or directory
[1725154761.056656] [cluster-256-hpc-256:73776:0]        mm_posix.c:291  UCX  ERROR shm_unlink(/ucx_shm_posix_12d67e1f) failed: No such file or directory
[1725154761.056757] [cluster-256-hpc-256:73776:0]        mm_posix.c:291  UCX  ERROR shm_unlink(/ucx_shm_posix_148c6086) failed: No such file or directory
[1725154761.056362] [cluster-256-hpc-256:73751:0]        mm_posix.c:291  UCX  ERROR shm_unlink(/ucx_shm_posix_13633c4c) failed: No such file or directory
[1725154761.056462] [cluster-256-hpc-256:73751:0]        mm_posix.c:291  UCX  ERROR shm_unlink(/ucx_shm_posix_23dedff4) failed: No such file or directory
[1725154761.056440] [cluster-256-hpc-256:73858:0]        mm_posix.c:291  UCX  ERROR shm_unlink(/ucx_shm_posix_2e7bad58) failed: No such file or directory
[1725154761.056526] [cluster-256-hpc-256:73858:0]        mm_posix.c:291  UCX  ERROR shm_unlink(/ucx_shm_posix_7fecea78) failed: No such file or directory
[1725154761.056357] [cluster-256-hpc-256:73814:0]        mm_posix.c:291  UCX  ERROR shm_unlink(/ucx_shm_posix_10364849) failed: No such file or directory
[1725154761.056479] [cluster-256-hpc-256:73814:0]        mm_posix.c:291  UCX  ERROR shm_unlink(/ucx_shm_posix_468fada1) failed: No such file or directory
[1725154761.056290] [cluster-256-hpc-256:73886:0]        mm_posix.c:291  UCX  ERROR shm_unlink(/ucx_shm_posix_41f38bb4) failed: No such file or directory
[1725154761.056409] [cluster-256-hpc-256:73886:0]        mm_posix.c:291  UCX  ERROR shm_unlink(/ucx_shm_posix_24d7b3c) failed: No such file or directory
[1725154761.056616] [cluster-256-hpc-256:73837:0]        mm_posix.c:291  UCX  ERROR shm_unlink(/ucx_shm_posix_61f9ef16) failed: No such file or directory
[1725154761.056828] [cluster-256-hpc-256:73837:0]        mm_posix.c:291  UCX  ERROR shm_unlink(/ucx_shm_posix_18ee520c) failed: No such file or directory
[1725154761.056492] [cluster-256-hpc-256:73919:0]        mm_posix.c:291  UCX  ERROR shm_unlink(/ucx_shm_posix_496708b8) failed: No such file or directory
[1725154761.056561] [cluster-256-hpc-256:73919:0]        mm_posix.c:291  UCX  ERROR shm_unlink(/ucx_shm_posix_3e335a13) failed: No such file or directory
[1725154761.056521] [cluster-256-hpc-256:73881:0]        mm_posix.c:291  UCX  ERROR shm_unlink(/ucx_shm_posix_20d6f9c8) failed: No such file or directory
[1725154761.056592] [cluster-256-hpc-256:73881:0]        mm_posix.c:291  UCX  ERROR shm_unlink(/ucx_shm_posix_5ad167ff) failed: No such file or directory
[1725154761.056235] [cluster-256-hpc-256:73941:0]        mm_posix.c:291  UCX  ERROR shm_unlink(/ucx_shm_posix_40bcbf70) failed: No such file or directory
[1725154761.056406] [cluster-256-hpc-256:73941:0]        mm_posix.c:291  UCX  ERROR shm_unlink(/ucx_shm_posix_37d83328) failed: No such file or directory
[1725154761.056451] [cluster-256-hpc-256:73901:0]        mm_posix.c:291  UCX  ERROR shm_unlink(/ucx_shm_posix_59624e79) failed: No such file or directory
[1725154761.056516] [cluster-256-hpc-256:73901:0]        mm_posix.c:291  UCX  ERROR shm_unlink(/ucx_shm_posix_37dbf320) failed: No such file or directory
[1725154761.055915] [cluster-256-hpc-256:71511:0]        mm_posix.c:291  UCX  ERROR shm_unlink(/ucx_shm_posix_764dff38) failed: No such file or directory
[1725154761.056118] [cluster-256-hpc-256:71511:0]        mm_posix.c:291  UCX  ERROR shm_unlink(/ucx_shm_posix_74c21361) failed: No such file or directory
[1725154761.056050] [cluster-256-hpc-256:72183:0]        mm_posix.c:291  UCX  ERROR shm_unlink(/ucx_shm_posix_51619ec) failed: No such file or directory
[1725154761.056128] [cluster-256-hpc-256:72183:0]        mm_posix.c:291  UCX  ERROR shm_unlink(/ucx_shm_posix_4d495567) failed: No such file or directory
[1725154761.056084] [cluster-256-hpc-256:72331:0]        mm_posix.c:291  UCX  ERROR shm_unlink(/ucx_shm_posix_7b973b7d) failed: No such file or directory
[1725154761.056238] [cluster-256-hpc-256:72331:0]        mm_posix.c:291  UCX  ERROR shm_unlink(/ucx_shm_posix_1648118b) failed: No such file or directory
[1725154761.056078] [cluster-256-hpc-256:72516:0]        mm_posix.c:291  UCX  ERROR shm_unlink(/ucx_shm_posix_71e544e0) failed: No such file or directory
[1725154761.056189] [cluster-256-hpc-256:72516:0]        mm_posix.c:291  UCX  ERROR shm_unlink(/ucx_shm_posix_43c73183) failed: No such file or directory
[1725154761.056130] [cluster-256-hpc-256:72641:0]        mm_posix.c:291  UCX  ERROR shm_unlink(/ucx_shm_posix_67f41a8) failed: No such file or directory
[1725154761.056336] [cluster-256-hpc-256:72641:0]        mm_posix.c:291  UCX  ERROR shm_unlink(/ucx_shm_posix_381373ed) failed: No such file or directory
[1725154761.056168] [cluster-256-hpc-256:72884:0]        mm_posix.c:291  UCX  ERROR shm_unlink(/ucx_shm_posix_291d0093) failed: No such file or directory
[1725154761.056394] [cluster-256-hpc-256:72884:0]        mm_posix.c:291  UCX  ERROR shm_unlink(/ucx_shm_posix_3ac85d01) failed: No such file or directory
[1725154761.056274] [cluster-256-hpc-256:72919:0]        mm_posix.c:291  UCX  ERROR shm_unlink(/ucx_shm_posix_4ddb0f4a) failed: No such file or directory
[1725154761.056429] [cluster-256-hpc-256:72919:0]        mm_posix.c:291  UCX  ERROR shm_unlink(/ucx_shm_posix_4055c84f) failed: No such file or directory
[1725154761.056219] [cluster-256-hpc-256:72958:0]        mm_posix.c:291  UCX  ERROR shm_unlink(/ucx_shm_posix_49989462) failed: No such file or directory
[1725154761.056492] [cluster-256-hpc-256:72958:0]        mm_posix.c:291  UCX  ERROR shm_unlink(/ucx_shm_posix_69008ef1) failed: No such file or directory
[1725154761.056202] [cluster-256-hpc-256:72997:0]        mm_posix.c:291  UCX  ERROR shm_unlink(/ucx_shm_posix_1bd55e0b) failed: No such file or directory
[1725154761.056477] [cluster-256-hpc-256:72997:0]        mm_posix.c:291  UCX  ERROR shm_unlink(/ucx_shm_posix_36058497) failed: No such file or directory
[1725154761.056268] [cluster-256-hpc-256:73009:0]        mm_posix.c:291  UCX  ERROR shm_unlink(/ucx_shm_posix_3640006a) failed: No such file or directory
[1725154761.056366] [cluster-256-hpc-256:73009:0]        mm_posix.c:291  UCX  ERROR shm_unlink(/ucx_shm_posix_5f8c419f) failed: No such file or directory
[1725154761.056316] [cluster-256-hpc-256:73052:0]        mm_posix.c:291  UCX  ERROR shm_unlink(/ucx_shm_posix_71461ffe) failed: No such file or directory
[1725154761.056437] [cluster-256-hpc-256:73052:0]        mm_posix.c:291  UCX  ERROR shm_unlink(/ucx_shm_posix_71e0f1d6) failed: No such file or directory
[1725154761.056351] [cluster-256-hpc-256:73055:0]        mm_posix.c:291  UCX  ERROR shm_unlink(/ucx_shm_posix_521698df) failed: No such file or directory
[1725154761.056512] [cluster-256-hpc-256:73055:0]        mm_posix.c:291  UCX  ERROR shm_unlink(/ucx_shm_posix_d95d8ce) failed: No such file or directory
[1725154761.056312] [cluster-256-hpc-256:73103:0]        mm_posix.c:291  UCX  ERROR shm_unlink(/ucx_shm_posix_58c07963) failed: No such file or directory
[1725154761.056458] [cluster-256-hpc-256:73103:0]        mm_posix.c:291  UCX  ERROR shm_unlink(/ucx_shm_posix_491d3129) failed: No such file or directory
[1725154761.056240] [cluster-256-hpc-256:73110:0]        mm_posix.c:291  UCX  ERROR shm_unlink(/ucx_shm_posix_4c3a8ef5) failed: No such file or directory
[1725154761.056356] [cluster-256-hpc-256:73110:0]        mm_posix.c:291  UCX  ERROR shm_unlink(/ucx_shm_posix_4355feae) failed: No such file or directory
[1725154761.056332] [cluster-256-hpc-256:73154:0]        mm_posix.c:291  UCX  ERROR shm_unlink(/ucx_shm_posix_9e08832) failed: No such file or directory
[1725154761.056454] [cluster-256-hpc-256:73154:0]        mm_posix.c:291  UCX  ERROR shm_unlink(/ucx_shm_posix_10139633) failed: No such file or directory
[1725154761.056411] [cluster-256-hpc-256:73182:0]        mm_posix.c:291  UCX  ERROR shm_unlink(/ucx_shm_posix_57f7db4c) failed: No such file or directory
[1725154761.056538] [cluster-256-hpc-256:73182:0]        mm_posix.c:291  UCX  ERROR shm_unlink(/ucx_shm_posix_6075aea2) failed: No such file or directory
[1725154761.056340] [cluster-256-hpc-256:73204:0]        mm_posix.c:291  UCX  ERROR shm_unlink(/ucx_shm_posix_4ed475c1) failed: No such file or directory
[1725154761.056464] [cluster-256-hpc-256:73204:0]        mm_posix.c:291  UCX  ERROR shm_unlink(/ucx_shm_posix_6932f23c) failed: No such file or directory
[1725154761.056285] [cluster-256-hpc-256:73212:0]        mm_posix.c:291  UCX  ERROR shm_unlink(/ucx_shm_posix_2fa79388) failed: No such file or directory
[1725154761.056380] [cluster-256-hpc-256:73212:0]        mm_posix.c:291  UCX  ERROR shm_unlink(/ucx_shm_posix_112b7f80) failed: No such file or directory
[1725154761.056318] [cluster-256-hpc-256:73243:0]        mm_posix.c:291  UCX  ERROR shm_unlink(/ucx_shm_posix_2b8647b3) failed: No such file or directory
[1725154761.056449] [cluster-256-hpc-256:73243:0]        mm_posix.c:291  UCX  ERROR shm_unlink(/ucx_shm_posix_1f4ec410) failed: No such file or directory
[1725154761.056270] [cluster-256-hpc-256:73281:0]        mm_posix.c:291  UCX  ERROR shm_unlink(/ucx_shm_posix_34f0909e) failed: No such file or directory
[1725154761.056502] [cluster-256-hpc-256:73281:0]        mm_posix.c:291  UCX  ERROR shm_unlink(/ucx_shm_posix_52177763) failed: No such file or directory
[1725154761.148067] [cluster-256-hpc-256:71481:0]        mm_posix.c:291  UCX  ERROR shm_unlink(/ucx_shm_posix_66a2bc77) failed: No such file or directory
[1725154761.148135] [cluster-256-hpc-256:71481:0]        mm_posix.c:291  UCX  ERROR shm_unlink(/ucx_shm_posix_574e067b) failed: No such file or directory
[1725154761.148303] [cluster-256-hpc-256:71894:0]        mm_posix.c:291  UCX  ERROR shm_unlink(/ucx_shm_posix_6116f531) failed: No such file or directory
[1725154761.148376] [cluster-256-hpc-256:71894:0]        mm_posix.c:291  UCX  ERROR shm_unlink(/ucx_shm_posix_4ecb7efc) failed: No such file or directory
[1725154761.148500] [cluster-256-hpc-256:72511:0]        mm_posix.c:291  UCX  ERROR shm_unlink(/ucx_shm_posix_543490fc) failed: No such file or directory
[1725154761.148604] [cluster-256-hpc-256:72511:0]        mm_posix.c:291  UCX  ERROR shm_unlink(/ucx_shm_posix_4e095c46) failed: No such file or directory
[1725154761.148502] [cluster-256-hpc-256:71422:0]        mm_posix.c:291  UCX  ERROR shm_unlink(/ucx_shm_posix_27395527) failed: No such file or directory
[1725154761.148599] [cluster-256-hpc-256:71422:0]        mm_posix.c:291  UCX  ERROR shm_unlink(/ucx_shm_posix_451afd4c) failed: No such file or directory
[1725154761.148506] [cluster-256-hpc-256:71424:0]        mm_posix.c:291  UCX  ERROR shm_unlink(/ucx_shm_posix_21298ad8) failed: No such file or directory
[1725154761.148602] [cluster-256-hpc-256:71424:0]        mm_posix.c:291  UCX  ERROR shm_unlink(/ucx_shm_posix_3c17d606) failed: No such file or directory
[1725154761.148808] [cluster-256-hpc-256:72468:0]        mm_posix.c:291  UCX  ERROR shm_unlink(/ucx_shm_posix_4f474fbb) failed: No such file or directory
[1725154761.148900] [cluster-256-hpc-256:72468:0]        mm_posix.c:291  UCX  ERROR shm_unlink(/ucx_shm_posix_9314dde) failed: No such file or directory
[1725154761.149033] [cluster-256-hpc-256:71774:0]        mm_posix.c:291  UCX  ERROR shm_unlink(/ucx_shm_posix_193c6f63) failed: No such file or directory
[1725154761.149142] [cluster-256-hpc-256:71774:0]        mm_posix.c:291  UCX  ERROR shm_unlink(/ucx_shm_posix_4c0731e9) failed: No such file or directory
[1725154761.149283] [cluster-256-hpc-256:72787:0]        mm_posix.c:291  UCX  ERROR shm_unlink(/ucx_shm_posix_1b6d58c8) failed: No such file or directory
[1725154761.149370] [cluster-256-hpc-256:72787:0]        mm_posix.c:291  UCX  ERROR shm_unlink(/ucx_shm_posix_434f8f1c) failed: No such file or directory
[1725154761.149439] [cluster-256-hpc-256:72183:0]        mm_posix.c:291  UCX  ERROR shm_unlink(/ucx_shm_posix_28220ca9) failed: No such file or directory
[1725154761.149529] [cluster-256-hpc-256:72183:0]        mm_posix.c:291  UCX  ERROR shm_unlink(/ucx_shm_posix_55eed4bb) failed: No such file or directory
[1725154761.149506] [cluster-256-hpc-256:71500:0]        mm_posix.c:291  UCX  ERROR shm_unlink(/ucx_shm_posix_568a3855) failed: No such file or directory
[1725154761.149479] [cluster-256-hpc-256:72088:0]        mm_posix.c:291  UCX  ERROR shm_unlink(/ucx_shm_posix_385a762b) failed: No such file or directory
[1725154761.149572] [cluster-256-hpc-256:72088:0]        mm_posix.c:291  UCX  ERROR shm_unlink(/ucx_shm_posix_67c41b6c) failed: No such file or directory
[1725154761.149606] [cluster-256-hpc-256:71500:0]        mm_posix.c:291  UCX  ERROR shm_unlink(/ucx_shm_posix_b30aa85) failed: No such file or directory
[1725154761.149617] [cluster-256-hpc-256:72181:0]        mm_posix.c:291  UCX  ERROR shm_unlink(/ucx_shm_posix_193d08cb) failed: No such file or directory
[1725154761.149700] [cluster-256-hpc-256:72181:0]        mm_posix.c:291  UCX  ERROR shm_unlink(/ucx_shm_posix_77cfa231) failed: No such file or directory
[1725154761.149646] [cluster-256-hpc-256:71675:0]        mm_posix.c:291  UCX  ERROR shm_unlink(/ucx_shm_posix_7b5816db) failed: No such file or directory
[1725154761.149764] [cluster-256-hpc-256:71675:0]        mm_posix.c:291  UCX  ERROR shm_unlink(/ucx_shm_posix_5d1614b1) failed: No such file or directory
[1725154761.149633] [cluster-256-hpc-256:71991:0]        mm_posix.c:291  UCX  ERROR shm_unlink(/ucx_shm_posix_f029ad4) failed: No such file or directory
[1725154761.149724] [cluster-256-hpc-256:71991:0]        mm_posix.c:291  UCX  ERROR shm_unlink(/ucx_shm_posix_61bfc564) failed: No such file or directory
[1725154761.149716] [cluster-256-hpc-256:72089:0]        mm_posix.c:291  UCX  ERROR shm_unlink(/ucx_shm_posix_3e3bc85a) failed: No such file or directory
[1725154761.149813] [cluster-256-hpc-256:71430:0]        mm_posix.c:291  UCX  ERROR shm_unlink(/ucx_shm_posix_506c3598) failed: No such file or directory
[1725154761.149877] [cluster-256-hpc-256:71430:0]        mm_posix.c:291  UCX  ERROR shm_unlink(/ucx_shm_posix_301435a8) failed: No such file or directory
[1725154761.149790] [cluster-256-hpc-256:71738:0]        mm_posix.c:291  UCX  ERROR shm_unlink(/ucx_shm_posix_3acc031c) failed: No such file or directory
[1725154761.149905] [cluster-256-hpc-256:71738:0]        mm_posix.c:291  UCX  ERROR shm_unlink(/ucx_shm_posix_35f9035e) failed: No such file or directory
[1725154761.149734] [cluster-256-hpc-256:71820:0]        mm_posix.c:291  UCX  ERROR shm_unlink(/ucx_shm_posix_33e4030b) failed: No such file or directory
[1725154761.149808] [cluster-256-hpc-256:71820:0]        mm_posix.c:291  UCX  ERROR shm_unlink(/ucx_shm_posix_1d50feb9) failed: No such file or directory
[1725154761.149833] [cluster-256-hpc-256:72182:0]        mm_posix.c:291  UCX  ERROR shm_unlink(/ucx_shm_posix_673dea5f) failed: No such file or directory
[1725154761.149907] [cluster-256-hpc-256:72182:0]        mm_posix.c:291  UCX  ERROR shm_unlink(/ucx_shm_posix_79d2d6a8) failed: No such file or directory
[1725154761.149825] [cluster-256-hpc-256:72261:0]        mm_posix.c:291  UCX  ERROR shm_unlink(/ucx_shm_posix_14509b58) failed: No such file or directory
[1725154761.149916] [cluster-256-hpc-256:72261:0]        mm_posix.c:291  UCX  ERROR shm_unlink(/ucx_shm_posix_25b64b69) failed: No such file or directory
[1725154761.149873] [cluster-256-hpc-256:72685:0]        mm_posix.c:291  UCX  ERROR shm_unlink(/ucx_shm_posix_5f312dd6) failed: No such file or directory
[1725154761.149805] [cluster-256-hpc-256:72089:0]        mm_posix.c:291  UCX  ERROR shm_unlink(/ucx_shm_posix_609abf72) failed: No such file or directory
[1725154761.149783] [cluster-256-hpc-256:72885:0]        mm_posix.c:291  UCX  ERROR shm_unlink(/ucx_shm_posix_1d87b7c7) failed: No such file or directory
[1725154761.149914] [cluster-256-hpc-256:72885:0]        mm_posix.c:291  UCX  ERROR shm_unlink(/ucx_shm_posix_1126d74f) failed: No such file or directory
[1725154761.149947] [cluster-256-hpc-256:72685:0]        mm_posix.c:291  UCX  ERROR shm_unlink(/ucx_shm_posix_53f5377b) failed: No such file or directory
[1725154761.149898] [cluster-256-hpc-256:71864:0]        mm_posix.c:291  UCX  ERROR shm_unlink(/ucx_shm_posix_53ed0d65) failed: No such file or directory
[1725154761.149973] [cluster-256-hpc-256:71864:0]        mm_posix.c:291  UCX  ERROR shm_unlink(/ucx_shm_posix_1f6069ff) failed: No such file or directory
[1725154761.149868] [cluster-256-hpc-256:72009:0]        mm_posix.c:291  UCX  ERROR shm_unlink(/ucx_shm_posix_5363563f) failed: No such file or directory
[1725154761.149942] [cluster-256-hpc-256:72009:0]        mm_posix.c:291  UCX  ERROR shm_unlink(/ucx_shm_posix_54af17e8) failed: No such file or directory
[1725154761.150021] [cluster-256-hpc-256:72729:0]        mm_posix.c:291  UCX  ERROR shm_unlink(/ucx_shm_posix_7395feff) failed: No such file or directory
[1725154761.150034] [cluster-256-hpc-256:72576:0]        mm_posix.c:291  UCX  ERROR shm_unlink(/ucx_shm_posix_116bbacf) failed: No such file or directory
[1725154761.150102] [cluster-256-hpc-256:72576:0]        mm_posix.c:291  UCX  ERROR shm_unlink(/ucx_shm_posix_4e827abd) failed: No such file or directory
[1725154761.150089] [cluster-256-hpc-256:72729:0]        mm_posix.c:291  UCX  ERROR shm_unlink(/ucx_shm_posix_42757ff1) failed: No such file or directory
[1725154761.150080] [cluster-256-hpc-256:71677:0]        mm_posix.c:291  UCX  ERROR shm_unlink(/ucx_shm_posix_bf49d15) failed: No such file or directory
[1725154761.150152] [cluster-256-hpc-256:71677:0]        mm_posix.c:291  UCX  ERROR shm_unlink(/ucx_shm_posix_444bdbd5) failed: No such file or directory
[1725154761.150098] [cluster-256-hpc-256:72090:0]        mm_posix.c:291  UCX  ERROR shm_unlink(/ucx_shm_posix_a8f21b) failed: No such file or directory
[1725154761.150182] [cluster-256-hpc-256:71511:0]        mm_posix.c:291  UCX  ERROR shm_unlink(/ucx_shm_posix_6814a829) failed: No such file or directory
[1725154761.150180] [cluster-256-hpc-256:72830:0]        mm_posix.c:291  UCX  ERROR shm_unlink(/ucx_shm_posix_7a6794d) failed: No such file or directory
[1725154761.150187] [cluster-256-hpc-256:72090:0]        mm_posix.c:291  UCX  ERROR shm_unlink(/ucx_shm_posix_4577e4de) failed: No such file or directory
[1725154761.150295] [cluster-256-hpc-256:71511:0]        mm_posix.c:291  UCX  ERROR shm_unlink(/ucx_shm_posix_27b903b9) failed: No such file or directory
[1725154761.150301] [cluster-256-hpc-256:72827:0]        mm_posix.c:291  UCX  ERROR shm_unlink(/ucx_shm_posix_42f2a86e) failed: No such file or directory
[1725154761.150263] [cluster-256-hpc-256:71968:0]        mm_posix.c:291  UCX  ERROR shm_unlink(/ucx_shm_posix_4ede59a3) failed: No such file or directory
[1725154761.150337] [cluster-256-hpc-256:71968:0]        mm_posix.c:291  UCX  ERROR shm_unlink(/ucx_shm_posix_c54aff6) failed: No such file or directory
[1725154761.150245] [cluster-256-hpc-256:72184:0]        mm_posix.c:291  UCX  ERROR shm_unlink(/ucx_shm_posix_4bae6f19) failed: No such file or directory
[1725154761.150317] [cluster-256-hpc-256:72184:0]        mm_posix.c:291  UCX  ERROR shm_unlink(/ucx_shm_posix_2b5d362c) failed: No such file or directory
[1725154761.150254] [cluster-256-hpc-256:72830:0]        mm_posix.c:291  UCX  ERROR shm_unlink(/ucx_shm_posix_53d4d785) failed: No such file or directory
[1725154761.150260] [cluster-256-hpc-256:72186:0]        mm_posix.c:291  UCX  ERROR shm_unlink(/ucx_shm_posix_3b427faf) failed: No such file or directory
[1725154761.150348] [cluster-256-hpc-256:72186:0]        mm_posix.c:291  UCX  ERROR shm_unlink(/ucx_shm_posix_77963687) failed: No such file or directory
[1725154761.150365] [cluster-256-hpc-256:72827:0]        mm_posix.c:291  UCX  ERROR shm_unlink(/ucx_shm_posix_7587b21e) failed: No such file or directory
[1725154761.150417] [cluster-256-hpc-256:72504:0]        mm_posix.c:291  UCX  ERROR shm_unlink(/ucx_shm_posix_59ab5125) failed: No such file or directory
[1725154761.150316] [cluster-256-hpc-256:72684:0]        mm_posix.c:291  UCX  ERROR shm_unlink(/ucx_shm_posix_41a5f2cc) failed: No such file or directory
[1725154761.150403] [cluster-256-hpc-256:72684:0]        mm_posix.c:291  UCX  ERROR shm_unlink(/ucx_shm_posix_3f97f617) failed: No such file or directory
[1725154761.150387] [cluster-256-hpc-256:72958:0]        mm_posix.c:291  UCX  ERROR shm_unlink(/ucx_shm_posix_654aa56a) failed: No such file or directory
[1725154761.150430] [cluster-256-hpc-256:72626:0]        mm_posix.c:291  UCX  ERROR shm_unlink(/ucx_shm_posix_4dac615d) failed: No such file or directory
[1725154761.150398] [cluster-256-hpc-256:71483:0]        mm_posix.c:291  UCX  ERROR shm_unlink(/ucx_shm_posix_4dbe266c) failed: No such file or directory
[1725154761.150522] [cluster-256-hpc-256:72626:0]        mm_posix.c:291  UCX  ERROR shm_unlink(/ucx_shm_posix_52c5736e) failed: No such file or directory
[1725154761.150552] [cluster-256-hpc-256:72288:0]        mm_posix.c:291  UCX  ERROR shm_unlink(/ucx_shm_posix_1999f9a1) failed: No such file or directory
[1725154761.150620] [cluster-256-hpc-256:72288:0]        mm_posix.c:291  UCX  ERROR shm_unlink(/ucx_shm_posix_3ed1f795) failed: No such file or directory
[1725154761.150515] [cluster-256-hpc-256:72504:0]        mm_posix.c:291  UCX  ERROR shm_unlink(/ucx_shm_posix_17fb7790) failed: No such file or directory
[1725154761.150508] [cluster-256-hpc-256:72765:0]        mm_posix.c:291  UCX  ERROR shm_unlink(/ucx_shm_posix_2cb8e0fb) failed: No such file or directory
[1725154761.150585] [cluster-256-hpc-256:72765:0]        mm_posix.c:291  UCX  ERROR shm_unlink(/ucx_shm_posix_5ba1daba) failed: No such file or directory
[1725154761.150533] [cluster-256-hpc-256:72919:0]        mm_posix.c:291  UCX  ERROR shm_unlink(/ucx_shm_posix_52f8014e) failed: No such file or directory
[1725154761.150601] [cluster-256-hpc-256:72919:0]        mm_posix.c:291  UCX  ERROR shm_unlink(/ucx_shm_posix_9612269) failed: No such file or directory
[1725154761.150594] [cluster-256-hpc-256:73110:0]        mm_posix.c:291  UCX  ERROR shm_unlink(/ucx_shm_posix_3fe9004c) failed: No such file or directory
[1725154761.150610] [cluster-256-hpc-256:73154:0]        mm_posix.c:291  UCX  ERROR shm_unlink(/ucx_shm_posix_4b8cd1aa) failed: No such file or directory
[1725154761.150474] [cluster-256-hpc-256:72958:0]        mm_posix.c:291  UCX  ERROR shm_unlink(/ucx_shm_posix_1cc61ea4) failed: No such file or directory
[1725154761.150759] [cluster-256-hpc-256:73858:0]        mm_posix.c:291  UCX  ERROR shm_unlink(/ucx_shm_posix_7eeefb54) failed: No such file or directory
[1725154761.150710] [cluster-256-hpc-256:73941:0]        mm_posix.c:291  UCX  ERROR shm_unlink(/ucx_shm_posix_233ae4e9) failed: No such file or directory
[1725154761.150799] [cluster-256-hpc-256:73941:0]        mm_posix.c:291  UCX  ERROR shm_unlink(/ucx_shm_posix_5a253213) failed: No such file or directory
[1725154761.150757] [cluster-256-hpc-256:72367:0]        mm_posix.c:291  UCX  ERROR shm_unlink(/ucx_shm_posix_221d22e) failed: No such file or directory
[1725154761.150733] [cluster-256-hpc-256:72564:0]        mm_posix.c:291  UCX  ERROR shm_unlink(/ucx_shm_posix_6a50fe52) failed: No such file or directory
[1725154761.150795] [cluster-256-hpc-256:72564:0]        mm_posix.c:291  UCX  ERROR shm_unlink(/ucx_shm_posix_62a07758) failed: No such file or directory
[1725154761.150605] [cluster-256-hpc-256:72516:0]        mm_posix.c:291  UCX  ERROR shm_unlink(/ucx_shm_posix_4da0e364) failed: No such file or directory
[1725154761.150678] [cluster-256-hpc-256:72516:0]        mm_posix.c:291  UCX  ERROR shm_unlink(/ucx_shm_posix_5ea8f27f) failed: No such file or directory
[1725154761.150715] [cluster-256-hpc-256:72641:0]        mm_posix.c:291  UCX  ERROR shm_unlink(/ucx_shm_posix_31414fb) failed: No such file or directory
[1725154761.150826] [cluster-256-hpc-256:72641:0]        mm_posix.c:291  UCX  ERROR shm_unlink(/ucx_shm_posix_feee814) failed: No such file or directory
[1725154761.150674] [cluster-256-hpc-256:73052:0]        mm_posix.c:291  UCX  ERROR shm_unlink(/ucx_shm_posix_57fe9d76) failed: No such file or directory
[1725154761.150737] [cluster-256-hpc-256:73052:0]        mm_posix.c:291  UCX  ERROR shm_unlink(/ucx_shm_posix_15c74d5c) failed: No such file or directory
[1725154761.150698] [cluster-256-hpc-256:73110:0]        mm_posix.c:291  UCX  ERROR shm_unlink(/ucx_shm_posix_11b321c6) failed: No such file or directory
[1725154761.150695] [cluster-256-hpc-256:73243:0]        mm_posix.c:291  UCX  ERROR shm_unlink(/ucx_shm_posix_516aaa45) failed: No such file or directory
[1725154761.150763] [cluster-256-hpc-256:73243:0]        mm_posix.c:291  UCX  ERROR shm_unlink(/ucx_shm_posix_329ec39c) failed: No such file or directory
[1725154761.150679] [cluster-256-hpc-256:73154:0]        mm_posix.c:291  UCX  ERROR shm_unlink(/ucx_shm_posix_68925f13) failed: No such file or directory
[1725154761.150698] [cluster-256-hpc-256:73356:0]        mm_posix.c:291  UCX  ERROR shm_unlink(/ucx_shm_posix_37128113) failed: No such file or directory
[1725154761.150773] [cluster-256-hpc-256:73356:0]        mm_posix.c:291  UCX  ERROR shm_unlink(/ucx_shm_posix_5781d86) failed: No such file or directory
[1725154761.150870] [cluster-256-hpc-256:72331:0]        mm_posix.c:291  UCX  ERROR shm_unlink(/ucx_shm_posix_1a17771a) failed: No such file or directory
[1725154761.150956] [cluster-256-hpc-256:72331:0]        mm_posix.c:291  UCX  ERROR shm_unlink(/ucx_shm_posix_1d6020e4) failed: No such file or directory
[1725154761.150849] [cluster-256-hpc-256:72367:0]        mm_posix.c:291  UCX  ERROR shm_unlink(/ucx_shm_posix_3495bec1) failed: No such file or directory
[1725154761.150996] [cluster-256-hpc-256:72884:0]        mm_posix.c:291  UCX  ERROR shm_unlink(/ucx_shm_posix_3ae1be48) failed: No such file or directory
[1725154761.151059] [cluster-256-hpc-256:72884:0]        mm_posix.c:291  UCX  ERROR shm_unlink(/ucx_shm_posix_4d28fce) failed: No such file or directory
[1725154761.150830] [cluster-256-hpc-256:72997:0]        mm_posix.c:291  UCX  ERROR shm_unlink(/ucx_shm_posix_42e194e0) failed: No such file or directory
[1725154761.150920] [cluster-256-hpc-256:72997:0]        mm_posix.c:291  UCX  ERROR shm_unlink(/ucx_shm_posix_1661c886) failed: No such file or directory
[1725154761.150984] [cluster-256-hpc-256:73055:0]        mm_posix.c:291  UCX  ERROR shm_unlink(/ucx_shm_posix_1cce30cb) failed: No such file or directory
[1725154761.151073] [cluster-256-hpc-256:73055:0]        mm_posix.c:291  UCX  ERROR shm_unlink(/ucx_shm_posix_5880bf94) failed: No such file or directory
[1725154761.150824] [cluster-256-hpc-256:73103:0]        mm_posix.c:291  UCX  ERROR shm_unlink(/ucx_shm_posix_7107f21d) failed: No such file or directory
[1725154761.150882] [cluster-256-hpc-256:73103:0]        mm_posix.c:291  UCX  ERROR shm_unlink(/ucx_shm_posix_123449ba) failed: No such file or directory
[1725154761.150924] [cluster-256-hpc-256:73204:0]        mm_posix.c:291  UCX  ERROR shm_unlink(/ucx_shm_posix_2724d6df) failed: No such file or directory
[1725154761.150991] [cluster-256-hpc-256:73204:0]        mm_posix.c:291  UCX  ERROR shm_unlink(/ucx_shm_posix_545072e1) failed: No such file or directory
[1725154761.151021] [cluster-256-hpc-256:73330:0]        mm_posix.c:291  UCX  ERROR shm_unlink(/ucx_shm_posix_56174569) failed: No such file or directory
[1725154761.151077] [cluster-256-hpc-256:73330:0]        mm_posix.c:291  UCX  ERROR shm_unlink(/ucx_shm_posix_636a0f94) failed: No such file or directory
[1725154761.150950] [cluster-256-hpc-256:73387:0]        mm_posix.c:291  UCX  ERROR shm_unlink(/ucx_shm_posix_1d26be4) failed: No such file or directory
[1725154761.150885] [cluster-256-hpc-256:73408:0]        mm_posix.c:291  UCX  ERROR shm_unlink(/ucx_shm_posix_1f78cbe2) failed: No such file or directory
[1725154761.150945] [cluster-256-hpc-256:73408:0]        mm_posix.c:291  UCX  ERROR shm_unlink(/ucx_shm_posix_10b8c90e) failed: No such file or directory
[1725154761.150915] [cluster-256-hpc-256:73456:0]        mm_posix.c:291  UCX  ERROR shm_unlink(/ucx_shm_posix_6aa3baab) failed: No such file or directory
[1725154761.151033] [cluster-256-hpc-256:73456:0]        mm_posix.c:291  UCX  ERROR shm_unlink(/ucx_shm_posix_699059f8) failed: No such file or directory
[1725154761.150847] [cluster-256-hpc-256:73492:0]        mm_posix.c:291  UCX  ERROR shm_unlink(/ucx_shm_posix_7941a459) failed: No such file or directory
[1725154761.150915] [cluster-256-hpc-256:73492:0]        mm_posix.c:291  UCX  ERROR shm_unlink(/ucx_shm_posix_e2dd2de) failed: No such file or directory
[1725154761.150894] [cluster-256-hpc-256:73510:0]        mm_posix.c:291  UCX  ERROR shm_unlink(/ucx_shm_posix_5c2e8464) failed: No such file or directory
[1725154761.150962] [cluster-256-hpc-256:73510:0]        mm_posix.c:291  UCX  ERROR shm_unlink(/ucx_shm_posix_2abc2850) failed: No such file or directory
[1725154761.150906] [cluster-256-hpc-256:73582:0]        mm_posix.c:291  UCX  ERROR shm_unlink(/ucx_shm_posix_6d8c37fb) failed: No such file or directory
[1725154761.151017] [cluster-256-hpc-256:73582:0]        mm_posix.c:291  UCX  ERROR shm_unlink(/ucx_shm_posix_7b1c82e) failed: No such file or directory
[1725154761.150995] [cluster-256-hpc-256:73558:0]        mm_posix.c:291  UCX  ERROR shm_unlink(/ucx_shm_posix_4c37bbae) failed: No such file or directory
[1725154761.151086] [cluster-256-hpc-256:73558:0]        mm_posix.c:291  UCX  ERROR shm_unlink(/ucx_shm_posix_1cd5af7b) failed: No such file or directory
[1725154761.151056] [cluster-256-hpc-256:73619:0]        mm_posix.c:291  UCX  ERROR shm_unlink(/ucx_shm_posix_534ce37e) failed: No such file or directory
[1725154761.151115] [cluster-256-hpc-256:73619:0]        mm_posix.c:291  UCX  ERROR shm_unlink(/ucx_shm_posix_40bf8c42) failed: No such file or directory
[1725154761.150906] [cluster-256-hpc-256:73667:0]        mm_posix.c:291  UCX  ERROR shm_unlink(/ucx_shm_posix_46dfd718) failed: No such file or directory
[1725154761.151025] [cluster-256-hpc-256:73667:0]        mm_posix.c:291  UCX  ERROR shm_unlink(/ucx_shm_posix_16b3f6cb) failed: No such file or directory
[1725154761.150888] [cluster-256-hpc-256:73663:0]        mm_posix.c:291  UCX  ERROR shm_unlink(/ucx_shm_posix_49776097) failed: No such file or directory
[1725154761.150950] [cluster-256-hpc-256:73663:0]        mm_posix.c:291  UCX  ERROR shm_unlink(/ucx_shm_posix_6bdf6954) failed: No such file or directory
[1725154761.150922] [cluster-256-hpc-256:73751:0]        mm_posix.c:291  UCX  ERROR shm_unlink(/ucx_shm_posix_71d708f0) failed: No such file or directory
[1725154761.150960] [cluster-256-hpc-256:73814:0]        mm_posix.c:291  UCX  ERROR shm_unlink(/ucx_shm_posix_37635738) failed: No such file or directory
[1725154761.151053] [cluster-256-hpc-256:73814:0]        mm_posix.c:291  UCX  ERROR shm_unlink(/ucx_shm_posix_403fbccb) failed: No such file or directory
[1725154761.150941] [cluster-256-hpc-256:73886:0]        mm_posix.c:291  UCX  ERROR shm_unlink(/ucx_shm_posix_d476f43) failed: No such file or directory
[1725154761.151050] [cluster-256-hpc-256:73886:0]        mm_posix.c:291  UCX  ERROR shm_unlink(/ucx_shm_posix_4130aa19) failed: No such file or directory
[1725154761.151081] [cluster-256-hpc-256:73881:0]        mm_posix.c:291  UCX  ERROR shm_unlink(/ucx_shm_posix_654bd4b4) failed: No such file or directory
[1725154761.151127] [cluster-256-hpc-256:73881:0]        mm_posix.c:291  UCX  ERROR shm_unlink(/ucx_shm_posix_60bd7d2d) failed: No such file or directory
[1725154761.150825] [cluster-256-hpc-256:73858:0]        mm_posix.c:291  UCX  ERROR shm_unlink(/ucx_shm_posix_5c1d6395) failed: No such file or directory
[1725154761.150898] [cluster-256-hpc-256:71652:0]        mm_posix.c:291  UCX  ERROR shm_unlink(/ucx_shm_posix_2f459458) failed: No such file or directory
[1725154761.150963] [cluster-256-hpc-256:71652:0]        mm_posix.c:291  UCX  ERROR shm_unlink(/ucx_shm_posix_3d51157e) failed: No such file or directory
[1725154761.150862] [cluster-256-hpc-256:73901:0]        mm_posix.c:291  UCX  ERROR shm_unlink(/ucx_shm_posix_4b6c3d3c) failed: No such file or directory
[1725154761.150937] [cluster-256-hpc-256:73901:0]        mm_posix.c:291  UCX  ERROR shm_unlink(/ucx_shm_posix_65c0a3ea) failed: No such file or directory
[1725154761.150899] [cluster-256-hpc-256:71876:0]        mm_posix.c:291  UCX  ERROR shm_unlink(/ucx_shm_posix_3953c886) failed: No such file or directory
[1725154761.151031] [cluster-256-hpc-256:71876:0]        mm_posix.c:291  UCX  ERROR shm_unlink(/ucx_shm_posix_93773ae) failed: No such file or directory
[1725154761.150912] [cluster-256-hpc-256:71942:0]        mm_posix.c:291  UCX  ERROR shm_unlink(/ucx_shm_posix_6f06f9) failed: No such file or directory
[1725154761.150975] [cluster-256-hpc-256:71942:0]        mm_posix.c:291  UCX  ERROR shm_unlink(/ucx_shm_posix_7d9b3dfe) failed: No such file or directory
[1725154761.150849] [cluster-256-hpc-256:71988:0]        mm_posix.c:291  UCX  ERROR shm_unlink(/ucx_shm_posix_4e57a2cb) failed: No such file or directory
[1725154761.150911] [cluster-256-hpc-256:71988:0]        mm_posix.c:291  UCX  ERROR shm_unlink(/ucx_shm_posix_12ff0aa3) failed: No such file or directory
[1725154761.151091] [cluster-256-hpc-256:73647:0]        mm_posix.c:291  UCX  ERROR shm_unlink(/ucx_shm_posix_f20040) failed: No such file or directory
[1725154761.151139] [cluster-256-hpc-256:73647:0]        mm_posix.c:291  UCX  ERROR shm_unlink(/ucx_shm_posix_2bbdb9fd) failed: No such file or directory
[1725154761.151113] [cluster-256-hpc-256:73753:0]        mm_posix.c:291  UCX  ERROR shm_unlink(/ucx_shm_posix_6c4569f3) failed: No such file or directory
[1725154761.151111] [cluster-256-hpc-256:73747:0]        mm_posix.c:291  UCX  ERROR shm_unlink(/ucx_shm_posix_61ac6679) failed: No such file or directory
[1725154761.151177] [cluster-256-hpc-256:73747:0]        mm_posix.c:291  UCX  ERROR shm_unlink(/ucx_shm_posix_9b6a046) failed: No such file or directory
[1725154761.151168] [cluster-256-hpc-256:73776:0]        mm_posix.c:291  UCX  ERROR shm_unlink(/ucx_shm_posix_6215f43f) failed: No such file or directory
[1725154761.151099] [cluster-256-hpc-256:73837:0]        mm_posix.c:291  UCX  ERROR shm_unlink(/ucx_shm_posix_9e96b0e) failed: No such file or directory
[1725154761.151348] [cluster-256-hpc-256:73919:0]        mm_posix.c:291  UCX  ERROR shm_unlink(/ucx_shm_posix_2bc77c87) failed: No such file or directory
[1725154761.151406] [cluster-256-hpc-256:73919:0]        mm_posix.c:291  UCX  ERROR shm_unlink(/ucx_shm_posix_11505ccb) failed: No such file or directory
[1725154761.151040] [cluster-256-hpc-256:71483:0]        mm_posix.c:291  UCX  ERROR shm_unlink(/ucx_shm_posix_523c36df) failed: No such file or directory
[1725154761.151024] [cluster-256-hpc-256:71812:0]        mm_posix.c:291  UCX  ERROR shm_unlink(/ucx_shm_posix_30d05753) failed: No such file or directory
[1725154761.151082] [cluster-256-hpc-256:71812:0]        mm_posix.c:291  UCX  ERROR shm_unlink(/ucx_shm_posix_cd30e73) failed: No such file or directory
[1725154761.151249] [cluster-256-hpc-256:71963:0]        mm_posix.c:291  UCX  ERROR shm_unlink(/ucx_shm_posix_6a9d2f5a) failed: No such file or directory
[1725154761.151311] [cluster-256-hpc-256:71963:0]        mm_posix.c:291  UCX  ERROR shm_unlink(/ucx_shm_posix_bdd82ca) failed: No such file or directory
[1725154761.151063] [cluster-256-hpc-256:72286:0]        mm_posix.c:291  UCX  ERROR shm_unlink(/ucx_shm_posix_773ee920) failed: No such file or directory
[1725154761.151150] [cluster-256-hpc-256:72286:0]        mm_posix.c:291  UCX  ERROR shm_unlink(/ucx_shm_posix_4abf1cc6) failed: No such file or directory
[1725154761.151030] [cluster-256-hpc-256:72287:0]        mm_posix.c:291  UCX  ERROR shm_unlink(/ucx_shm_posix_7edbe04d) failed: No such file or directory
[1725154761.151093] [cluster-256-hpc-256:72287:0]        mm_posix.c:291  UCX  ERROR shm_unlink(/ucx_shm_posix_78e957a1) failed: No such file or directory
[1725154761.151320] [cluster-256-hpc-256:73281:0]        mm_posix.c:291  UCX  ERROR shm_unlink(/ucx_shm_posix_523e1ce4) failed: No such file or directory
[1725154761.151066] [cluster-256-hpc-256:73009:0]        mm_posix.c:291  UCX  ERROR shm_unlink(/ucx_shm_posix_690f799f) failed: No such file or directory
[1725154761.151160] [cluster-256-hpc-256:73009:0]        mm_posix.c:291  UCX  ERROR shm_unlink(/ucx_shm_posix_cf3426d) failed: No such file or directory
[1725154761.151088] [cluster-256-hpc-256:73182:0]        mm_posix.c:291  UCX  ERROR shm_unlink(/ucx_shm_posix_5666c0c4) failed: No such file or directory
[1725154761.151148] [cluster-256-hpc-256:73182:0]        mm_posix.c:291  UCX  ERROR shm_unlink(/ucx_shm_posix_2f1f44fa) failed: No such file or directory
[1725154761.151069] [cluster-256-hpc-256:73212:0]        mm_posix.c:291  UCX  ERROR shm_unlink(/ucx_shm_posix_6b21fcec) failed: No such file or directory
[1725154761.151161] [cluster-256-hpc-256:73212:0]        mm_posix.c:291  UCX  ERROR shm_unlink(/ucx_shm_posix_2e75339f) failed: No such file or directory
[1725154761.151146] [cluster-256-hpc-256:73354:0]        mm_posix.c:291  UCX  ERROR shm_unlink(/ucx_shm_posix_6d14660e) failed: No such file or directory
[1725154761.151342] [cluster-256-hpc-256:73540:0]        mm_posix.c:291  UCX  ERROR shm_unlink(/ucx_shm_posix_568e27bc) failed: No such file or directory
[1725154761.151423] [cluster-256-hpc-256:73540:0]        mm_posix.c:291  UCX  ERROR shm_unlink(/ucx_shm_posix_56f0154c) failed: No such file or directory
[1725154761.151562] [cluster-256-hpc-256:71423:0]        mm_posix.c:291  UCX  ERROR shm_unlink(/ucx_shm_posix_5ae12fc4) failed: No such file or directory
[1725154761.151631] [cluster-256-hpc-256:71423:0]        mm_posix.c:291  UCX  ERROR shm_unlink(/ucx_shm_posix_4d7113b) failed: No such file or directory
[1725154761.151961] [cluster-256-hpc-256:73751:0]        mm_posix.c:291  UCX  ERROR shm_unlink(/ucx_shm_posix_c0ce442) failed: No such file or directory
[1725154761.152002] [cluster-256-hpc-256:73387:0]        mm_posix.c:291  UCX  ERROR shm_unlink(/ucx_shm_posix_d59e289) failed: No such file or directory
[1725154761.152065] [cluster-256-hpc-256:73387:0]        mm_posix.c:291  UCX  ERROR shm_unlink(/ucx_shm_posix_9d61b04) failed: No such file or directory
[1725154761.152063] [cluster-256-hpc-256:73837:0]        mm_posix.c:291  UCX  ERROR shm_unlink(/ucx_shm_posix_7f7d5414) failed: No such file or directory
[1725154761.152011] [cluster-256-hpc-256:73751:0]        mm_posix.c:291  UCX  ERROR shm_unlink(/ucx_shm_posix_35128fd3) failed: No such file or directory
[1725154761.152110] [cluster-256-hpc-256:73837:0]        mm_posix.c:291  UCX  ERROR shm_unlink(/ucx_shm_posix_6d843f73) failed: No such file or directory
[1725154761.152221] [cluster-256-hpc-256:73776:0]        mm_posix.c:291  UCX  ERROR shm_unlink(/ucx_shm_posix_26d2392e) failed: No such file or directory
[1725154761.152198] [cluster-256-hpc-256:73354:0]        mm_posix.c:291  UCX  ERROR shm_unlink(/ucx_shm_posix_71984d11) failed: No such file or directory
[1725154761.152257] [cluster-256-hpc-256:73354:0]        mm_posix.c:291  UCX  ERROR shm_unlink(/ucx_shm_posix_41e65944) failed: No such file or directory
[1725154761.152246] [cluster-256-hpc-256:73753:0]        mm_posix.c:291  UCX  ERROR shm_unlink(/ucx_shm_posix_7e8bff50) failed: No such file or directory
[1725154761.152300] [cluster-256-hpc-256:73753:0]        mm_posix.c:291  UCX  ERROR shm_unlink(/ucx_shm_posix_10d8438f) failed: No such file or directory
[1725154761.152299] [cluster-256-hpc-256:73281:0]        mm_posix.c:291  UCX  ERROR shm_unlink(/ucx_shm_posix_2e29c8be) failed: No such file or directory
[1725154761.152352] [cluster-256-hpc-256:73281:0]        mm_posix.c:291  UCX  ERROR shm_unlink(/ucx_shm_posix_13e17b7d) failed: No such file or directory
[1725154761.152275] [cluster-256-hpc-256:73776:0]        mm_posix.c:291  UCX  ERROR shm_unlink(/ucx_shm_posix_3b6c0a1f) failed: No such file or directory
[1725154761.198385] [cluster-256-hpc-256:71481:0]        mm_posix.c:291  UCX  ERROR shm_unlink(/ucx_shm_posix_5bf5c63c) failed: No such file or directory
[1725154761.198434] [cluster-256-hpc-256:71481:0]        mm_posix.c:291  UCX  ERROR shm_unlink(/ucx_shm_posix_337e516f) failed: No such file or directory
[1725154761.199222] [cluster-256-hpc-256:71422:0]        mm_posix.c:291  UCX  ERROR shm_unlink(/ucx_shm_posix_7303df3d) failed: No such file or directory
[1725154761.199273] [cluster-256-hpc-256:71422:0]        mm_posix.c:291  UCX  ERROR shm_unlink(/ucx_shm_posix_f18e670) failed: No such file or directory
[1725154761.199504] [cluster-256-hpc-256:71894:0]        mm_posix.c:291  UCX  ERROR shm_unlink(/ucx_shm_posix_2a367ce7) failed: No such file or directory
[1725154761.199564] [cluster-256-hpc-256:71894:0]        mm_posix.c:291  UCX  ERROR shm_unlink(/ucx_shm_posix_cf06c1b) failed: No such file or directory
[1725154761.200509] [cluster-256-hpc-256:72468:0]        mm_posix.c:291  UCX  ERROR shm_unlink(/ucx_shm_posix_21a02c64) failed: No such file or directory
[1725154761.200562] [cluster-256-hpc-256:72468:0]        mm_posix.c:291  UCX  ERROR shm_unlink(/ucx_shm_posix_339a574e) failed: No such file or directory
[1725154761.200953] [cluster-256-hpc-256:71424:0]        mm_posix.c:291  UCX  ERROR shm_unlink(/ucx_shm_posix_7b9ec810) failed: No such file or directory
[1725154761.201001] [cluster-256-hpc-256:71424:0]        mm_posix.c:291  UCX  ERROR shm_unlink(/ucx_shm_posix_736e7663) failed: No such file or directory
[1725154761.203283] [cluster-256-hpc-256:71774:0]        mm_posix.c:291  UCX  ERROR shm_unlink(/ucx_shm_posix_2ad2213d) failed: No such file or directory
[1725154761.203345] [cluster-256-hpc-256:71774:0]        mm_posix.c:291  UCX  ERROR shm_unlink(/ucx_shm_posix_49293182) failed: No such file or directory
[1725154761.205700] [cluster-256-hpc-256:72787:0]        mm_posix.c:291  UCX  ERROR shm_unlink(/ucx_shm_posix_319c6f37) failed: No such file or directory
[1725154761.205748] [cluster-256-hpc-256:72787:0]        mm_posix.c:291  UCX  ERROR shm_unlink(/ucx_shm_posix_4f24f2c6) failed: No such file or directory
[1725154761.205951] [cluster-256-hpc-256:72511:0]        mm_posix.c:291  UCX  ERROR shm_unlink(/ucx_shm_posix_37da28f6) failed: No such file or directory
[1725154761.206008] [cluster-256-hpc-256:72511:0]        mm_posix.c:291  UCX  ERROR shm_unlink(/ucx_shm_posix_5cca5faf) failed: No such file or directory
[1725154761.206876] [cluster-256-hpc-256:72088:0]        mm_posix.c:291  UCX  ERROR shm_unlink(/ucx_shm_posix_2e0d10a6) failed: No such file or directory
[1725154761.206944] [cluster-256-hpc-256:72088:0]        mm_posix.c:291  UCX  ERROR shm_unlink(/ucx_shm_posix_705636f0) failed: No such file or directory
[1725154761.207188] [cluster-256-hpc-256:72181:0]        mm_posix.c:291  UCX  ERROR shm_unlink(/ucx_shm_posix_18bab404) failed: No such file or directory
[1725154761.207235] [cluster-256-hpc-256:72181:0]        mm_posix.c:291  UCX  ERROR shm_unlink(/ucx_shm_posix_1b6df59c) failed: No such file or directory
[1725154761.206930] [cluster-256-hpc-256:72183:0]        mm_posix.c:291  UCX  ERROR shm_unlink(/ucx_shm_posix_67b95b31) failed: No such file or directory
[1725154761.206992] [cluster-256-hpc-256:72183:0]        mm_posix.c:291  UCX  ERROR shm_unlink(/ucx_shm_posix_646ef880) failed: No such file or directory
[1725154761.207598] [cluster-256-hpc-256:72009:0]        mm_posix.c:291  UCX  ERROR shm_unlink(/ucx_shm_posix_2b55078a) failed: No such file or directory
[1725154761.207661] [cluster-256-hpc-256:72009:0]        mm_posix.c:291  UCX  ERROR shm_unlink(/ucx_shm_posix_49e9f503) failed: No such file or directory
[1725154761.207621] [cluster-256-hpc-256:71864:0]        mm_posix.c:291  UCX  ERROR shm_unlink(/ucx_shm_posix_68e69a66) failed: No such file or directory
[1725154761.207675] [cluster-256-hpc-256:71864:0]        mm_posix.c:291  UCX  ERROR shm_unlink(/ucx_shm_posix_12226f87) failed: No such file or directory
[1725154761.207798] [cluster-256-hpc-256:72885:0]        mm_posix.c:291  UCX  ERROR shm_unlink(/ucx_shm_posix_7da1ea8d) failed: No such file or directory
[1725154761.207865] [cluster-256-hpc-256:72885:0]        mm_posix.c:291  UCX  ERROR shm_unlink(/ucx_shm_posix_7dc9b12) failed: No such file or directory
[1725154761.207797] [cluster-256-hpc-256:72729:0]        mm_posix.c:291  UCX  ERROR shm_unlink(/ucx_shm_posix_615d4528) failed: No such file or directory
[1725154761.207852] [cluster-256-hpc-256:72729:0]        mm_posix.c:291  UCX  ERROR shm_unlink(/ucx_shm_posix_1c02b4fd) failed: No such file or directory
[1725154761.207839] [cluster-256-hpc-256:71738:0]        mm_posix.c:291  UCX  ERROR shm_unlink(/ucx_shm_posix_58ebea4b) failed: No such file or directory
[1725154761.207903] [cluster-256-hpc-256:71738:0]        mm_posix.c:291  UCX  ERROR shm_unlink(/ucx_shm_posix_56862a5c) failed: No such file or directory
[1725154761.207861] [cluster-256-hpc-256:71500:0]        mm_posix.c:291  UCX  ERROR shm_unlink(/ucx_shm_posix_42c57231) failed: No such file or directory
[1725154761.207943] [cluster-256-hpc-256:71500:0]        mm_posix.c:291  UCX  ERROR shm_unlink(/ucx_shm_posix_55f59c56) failed: No such file or directory
[1725154761.207851] [cluster-256-hpc-256:71991:0]        mm_posix.c:291  UCX  ERROR shm_unlink(/ucx_shm_posix_59f0befd) failed: No such file or directory
[1725154761.207957] [cluster-256-hpc-256:71991:0]        mm_posix.c:291  UCX  ERROR shm_unlink(/ucx_shm_posix_71058119) failed: No such file or directory
[1725154761.207909] [cluster-256-hpc-256:72288:0]        mm_posix.c:291  UCX  ERROR shm_unlink(/ucx_shm_posix_29febf95) failed: No such file or directory
[1725154761.207968] [cluster-256-hpc-256:72288:0]        mm_posix.c:291  UCX  ERROR shm_unlink(/ucx_shm_posix_30ef68d) failed: No such file or directory
[1725154761.208045] [cluster-256-hpc-256:72182:0]        mm_posix.c:291  UCX  ERROR shm_unlink(/ucx_shm_posix_5a86afd2) failed: No such file or directory
[1725154761.207995] [cluster-256-hpc-256:72516:0]        mm_posix.c:291  UCX  ERROR shm_unlink(/ucx_shm_posix_1353beb7) failed: No such file or directory
[1725154761.208042] [cluster-256-hpc-256:72516:0]        mm_posix.c:291  UCX  ERROR shm_unlink(/ucx_shm_posix_4319d357) failed: No such file or directory
[1725154761.208115] [cluster-256-hpc-256:72182:0]        mm_posix.c:291  UCX  ERROR shm_unlink(/ucx_shm_posix_24325895) failed: No such file or directory
[1725154761.208185] [cluster-256-hpc-256:71677:0]        mm_posix.c:291  UCX  ERROR shm_unlink(/ucx_shm_posix_437572d9) failed: No such file or directory
[1725154761.208187] [cluster-256-hpc-256:71820:0]        mm_posix.c:291  UCX  ERROR shm_unlink(/ucx_shm_posix_6e93c76e) failed: No such file or directory
[1725154761.208182] [cluster-256-hpc-256:72576:0]        mm_posix.c:291  UCX  ERROR shm_unlink(/ucx_shm_posix_6373fd2c) failed: No such file or directory
[1725154761.208305] [cluster-256-hpc-256:72576:0]        mm_posix.c:291  UCX  ERROR shm_unlink(/ucx_shm_posix_6b3347cb) failed: No such file or directory
[1725154761.208229] [cluster-256-hpc-256:72184:0]        mm_posix.c:291  UCX  ERROR shm_unlink(/ucx_shm_posix_6a43ad1d) failed: No such file or directory
[1725154761.208285] [cluster-256-hpc-256:72184:0]        mm_posix.c:291  UCX  ERROR shm_unlink(/ucx_shm_posix_78f4be39) failed: No such file or directory
[1725154761.208256] [cluster-256-hpc-256:72827:0]        mm_posix.c:291  UCX  ERROR shm_unlink(/ucx_shm_posix_31fd5565) failed: No such file or directory
[1725154761.208308] [cluster-256-hpc-256:72827:0]        mm_posix.c:291  UCX  ERROR shm_unlink(/ucx_shm_posix_4b00d5b8) failed: No such file or directory
[1725154761.208302] [cluster-256-hpc-256:71820:0]        mm_posix.c:291  UCX  ERROR shm_unlink(/ucx_shm_posix_1e678d6c) failed: No such file or directory
[1725154761.208300] [cluster-256-hpc-256:71511:0]        mm_posix.c:291  UCX  ERROR shm_unlink(/ucx_shm_posix_418a3308) failed: No such file or directory
[1725154761.208363] [cluster-256-hpc-256:71511:0]        mm_posix.c:291  UCX  ERROR shm_unlink(/ucx_shm_posix_3c753dcb) failed: No such file or directory
[1725154761.208301] [cluster-256-hpc-256:72684:0]        mm_posix.c:291  UCX  ERROR shm_unlink(/ucx_shm_posix_36f14af2) failed: No such file or directory
[1725154761.208358] [cluster-256-hpc-256:72684:0]        mm_posix.c:291  UCX  ERROR shm_unlink(/ucx_shm_posix_5cb48ac1) failed: No such file or directory
[1725154761.208310] [cluster-256-hpc-256:71677:0]        mm_posix.c:291  UCX  ERROR shm_unlink(/ucx_shm_posix_7289464d) failed: No such file or directory
[1725154761.208417] [cluster-256-hpc-256:72261:0]        mm_posix.c:291  UCX  ERROR shm_unlink(/ucx_shm_posix_5523a2f0) failed: No such file or directory
[1725154761.208346] [cluster-256-hpc-256:72089:0]        mm_posix.c:291  UCX  ERROR shm_unlink(/ucx_shm_posix_3f26f318) failed: No such file or directory
[1725154761.208407] [cluster-256-hpc-256:72089:0]        mm_posix.c:291  UCX  ERROR shm_unlink(/ucx_shm_posix_7b82711a) failed: No such file or directory
[1725154761.208492] [cluster-256-hpc-256:72626:0]        mm_posix.c:291  UCX  ERROR shm_unlink(/ucx_shm_posix_775eb455) failed: No such file or directory
[1725154761.208541] [cluster-256-hpc-256:72626:0]        mm_posix.c:291  UCX  ERROR shm_unlink(/ucx_shm_posix_7802c32a) failed: No such file or directory
[1725154761.208496] [cluster-256-hpc-256:73941:0]        mm_posix.c:291  UCX  ERROR shm_unlink(/ucx_shm_posix_6b6e9087) failed: No such file or directory
[1725154761.208563] [cluster-256-hpc-256:73941:0]        mm_posix.c:291  UCX  ERROR shm_unlink(/ucx_shm_posix_8c75454) failed: No such file or directory
[1725154761.208518] [cluster-256-hpc-256:72261:0]        mm_posix.c:291  UCX  ERROR shm_unlink(/ucx_shm_posix_5fa7780c) failed: No such file or directory
[1725154761.208562] [cluster-256-hpc-256:71675:0]        mm_posix.c:291  UCX  ERROR shm_unlink(/ucx_shm_posix_943cb8d) failed: No such file or directory
[1725154761.208657] [cluster-256-hpc-256:71675:0]        mm_posix.c:291  UCX  ERROR shm_unlink(/ucx_shm_posix_1a2c1ae5) failed: No such file or directory
[1725154761.208703] [cluster-256-hpc-256:73858:0]        mm_posix.c:291  UCX  ERROR shm_unlink(/ucx_shm_posix_4a7bb970) failed: No such file or directory
[1725154761.208756] [cluster-256-hpc-256:73858:0]        mm_posix.c:291  UCX  ERROR shm_unlink(/ucx_shm_posix_129a788b) failed: No such file or directory
[1725154761.208898] [cluster-256-hpc-256:72685:0]        mm_posix.c:291  UCX  ERROR shm_unlink(/ucx_shm_posix_4937b839) failed: No such file or directory
[1725154761.208974] [cluster-256-hpc-256:73103:0]        mm_posix.c:291  UCX  ERROR shm_unlink(/ucx_shm_posix_2ffcda92) failed: No such file or directory
[1725154761.209035] [cluster-256-hpc-256:72884:0]        mm_posix.c:291  UCX  ERROR shm_unlink(/ucx_shm_posix_3d7a7712) failed: No such file or directory
[1725154761.209085] [cluster-256-hpc-256:72884:0]        mm_posix.c:291  UCX  ERROR shm_unlink(/ucx_shm_posix_6b8998b7) failed: No such file or directory
[1725154761.209025] [cluster-256-hpc-256:72685:0]        mm_posix.c:291  UCX  ERROR shm_unlink(/ucx_shm_posix_5e9f289a) failed: No such file or directory
[1725154761.209021] [cluster-256-hpc-256:73667:0]        mm_posix.c:291  UCX  ERROR shm_unlink(/ucx_shm_posix_19080187) failed: No such file or directory
[1725154761.209074] [cluster-256-hpc-256:73667:0]        mm_posix.c:291  UCX  ERROR shm_unlink(/ucx_shm_posix_1400c1a7) failed: No such file or directory
[1725154761.209036] [cluster-256-hpc-256:73103:0]        mm_posix.c:291  UCX  ERROR shm_unlink(/ucx_shm_posix_2374f2c8) failed: No such file or directory
[1725154761.209146] [cluster-256-hpc-256:72090:0]        mm_posix.c:291  UCX  ERROR shm_unlink(/ucx_shm_posix_691273c0) failed: No such file or directory
[1725154761.209204] [cluster-256-hpc-256:73408:0]        mm_posix.c:291  UCX  ERROR shm_unlink(/ucx_shm_posix_55c5d53f) failed: No such file or directory
[1725154761.209238] [cluster-256-hpc-256:72090:0]        mm_posix.c:291  UCX  ERROR shm_unlink(/ucx_shm_posix_22b60804) failed: No such file or directory
[1725154761.209275] [cluster-256-hpc-256:73408:0]        mm_posix.c:291  UCX  ERROR shm_unlink(/ucx_shm_posix_2e36923a) failed: No such file or directory
[1725154761.209328] [cluster-256-hpc-256:72186:0]        mm_posix.c:291  UCX  ERROR shm_unlink(/ucx_shm_posix_17ea70f2) failed: No such file or directory
[1725154761.209370] [cluster-256-hpc-256:73055:0]        mm_posix.c:291  UCX  ERROR shm_unlink(/ucx_shm_posix_740b4d7d) failed: No such file or directory
[1725154761.209416] [cluster-256-hpc-256:73055:0]        mm_posix.c:291  UCX  ERROR shm_unlink(/ucx_shm_posix_14676e41) failed: No such file or directory
[1725154761.209419] [cluster-256-hpc-256:72186:0]        mm_posix.c:291  UCX  ERROR shm_unlink(/ucx_shm_posix_3014212c) failed: No such file or directory
[1725154761.209577] [cluster-256-hpc-256:71988:0]        mm_posix.c:291  UCX  ERROR shm_unlink(/ucx_shm_posix_26ec454b) failed: No such file or directory
[1725154761.209623] [cluster-256-hpc-256:71988:0]        mm_posix.c:291  UCX  ERROR shm_unlink(/ucx_shm_posix_118ffcff) failed: No such file or directory
[1725154761.209759] [cluster-256-hpc-256:73204:0]        mm_posix.c:291  UCX  ERROR shm_unlink(/ucx_shm_posix_180c919e) failed: No such file or directory
[1725154761.209818] [cluster-256-hpc-256:73204:0]        mm_posix.c:291  UCX  ERROR shm_unlink(/ucx_shm_posix_4ac3b893) failed: No such file or directory
[1725154761.209765] [cluster-256-hpc-256:71430:0]        mm_posix.c:291  UCX  ERROR shm_unlink(/ucx_shm_posix_58d3753d) failed: No such file or directory
[1725154761.209851] [cluster-256-hpc-256:71430:0]        mm_posix.c:291  UCX  ERROR shm_unlink(/ucx_shm_posix_2db1f7d4) failed: No such file or directory
[1725154761.209890] [cluster-256-hpc-256:72367:0]        mm_posix.c:291  UCX  ERROR shm_unlink(/ucx_shm_posix_4f50caff) failed: No such file or directory
[1725154761.209954] [cluster-256-hpc-256:72367:0]        mm_posix.c:291  UCX  ERROR shm_unlink(/ucx_shm_posix_a2506) failed: No such file or directory
[1725154761.210036] [cluster-256-hpc-256:72504:0]        mm_posix.c:291  UCX  ERROR shm_unlink(/ucx_shm_posix_55eda0f1) failed: No such file or directory
[1725154761.210113] [cluster-256-hpc-256:72504:0]        mm_posix.c:291  UCX  ERROR shm_unlink(/ucx_shm_posix_782f1ee9) failed: No such file or directory
[1725154761.210139] [cluster-256-hpc-256:72830:0]        mm_posix.c:291  UCX  ERROR shm_unlink(/ucx_shm_posix_138cc8b1) failed: No such file or directory
[1725154761.210207] [cluster-256-hpc-256:72830:0]        mm_posix.c:291  UCX  ERROR shm_unlink(/ucx_shm_posix_a0e737) failed: No such file or directory
[1725154761.210325] [cluster-256-hpc-256:73052:0]        mm_posix.c:291  UCX  ERROR shm_unlink(/ucx_shm_posix_45eef3e2) failed: No such file or directory
[1725154761.210378] [cluster-256-hpc-256:73052:0]        mm_posix.c:291  UCX  ERROR shm_unlink(/ucx_shm_posix_682071da) failed: No such file or directory
[1725154761.210450] [cluster-256-hpc-256:72564:0]        mm_posix.c:291  UCX  ERROR shm_unlink(/ucx_shm_posix_2448161e) failed: No such file or directory
[1725154761.210507] [cluster-256-hpc-256:72564:0]        mm_posix.c:291  UCX  ERROR shm_unlink(/ucx_shm_posix_10892b8e) failed: No such file or directory
[1725154761.210430] [cluster-256-hpc-256:72919:0]        mm_posix.c:291  UCX  ERROR shm_unlink(/ucx_shm_posix_6a19a7a2) failed: No such file or directory
[1725154761.210505] [cluster-256-hpc-256:72919:0]        mm_posix.c:291  UCX  ERROR shm_unlink(/ucx_shm_posix_407709b) failed: No such file or directory
[1725154761.210465] [cluster-256-hpc-256:71942:0]        mm_posix.c:291  UCX  ERROR shm_unlink(/ucx_shm_posix_181400ef) failed: No such file or directory
[1725154761.210522] [cluster-256-hpc-256:71942:0]        mm_posix.c:291  UCX  ERROR shm_unlink(/ucx_shm_posix_46e5f35b) failed: No such file or directory
[1725154761.210500] [cluster-256-hpc-256:73901:0]        mm_posix.c:291  UCX  ERROR shm_unlink(/ucx_shm_posix_721028a8) failed: No such file or directory
[1725154761.210550] [cluster-256-hpc-256:73901:0]        mm_posix.c:291  UCX  ERROR shm_unlink(/ucx_shm_posix_63223428) failed: No such file or directory
[1725154761.210580] [cluster-256-hpc-256:72997:0]        mm_posix.c:291  UCX  ERROR shm_unlink(/ucx_shm_posix_6f9c6140) failed: No such file or directory
[1725154761.210609] [cluster-256-hpc-256:73356:0]        mm_posix.c:291  UCX  ERROR shm_unlink(/ucx_shm_posix_f6f35e6) failed: No such file or directory
[1725154761.210668] [cluster-256-hpc-256:73356:0]        mm_posix.c:291  UCX  ERROR shm_unlink(/ucx_shm_posix_3ebfe267) failed: No such file or directory
[1725154761.210643] [cluster-256-hpc-256:72331:0]        mm_posix.c:291  UCX  ERROR shm_unlink(/ucx_shm_posix_3aa5d62e) failed: No such file or directory
[1725154761.210639] [cluster-256-hpc-256:72997:0]        mm_posix.c:291  UCX  ERROR shm_unlink(/ucx_shm_posix_72e1e805) failed: No such file or directory
[1725154761.210750] [cluster-256-hpc-256:73492:0]        mm_posix.c:291  UCX  ERROR shm_unlink(/ucx_shm_posix_16fc8df0) failed: No such file or directory
[1725154761.210701] [cluster-256-hpc-256:72331:0]        mm_posix.c:291  UCX  ERROR shm_unlink(/ucx_shm_posix_62caa654) failed: No such file or directory
[1725154761.210800] [cluster-256-hpc-256:73492:0]        mm_posix.c:291  UCX  ERROR shm_unlink(/ucx_shm_posix_3d5212ec) failed: No such file or directory
[1725154761.210912] [cluster-256-hpc-256:73243:0]        mm_posix.c:291  UCX  ERROR shm_unlink(/ucx_shm_posix_105c9bd4) failed: No such file or directory
[1725154761.210979] [cluster-256-hpc-256:73558:0]        mm_posix.c:291  UCX  ERROR shm_unlink(/ucx_shm_posix_465b6c75) failed: No such file or directory
[1725154761.210966] [cluster-256-hpc-256:73243:0]        mm_posix.c:291  UCX  ERROR shm_unlink(/ucx_shm_posix_23b4d171) failed: No such file or directory
[1725154761.211038] [cluster-256-hpc-256:73558:0]        mm_posix.c:291  UCX  ERROR shm_unlink(/ucx_shm_posix_5197f88b) failed: No such file or directory
[1725154761.211038] [cluster-256-hpc-256:73814:0]        mm_posix.c:291  UCX  ERROR shm_unlink(/ucx_shm_posix_3d26e08f) failed: No such file or directory
[1725154761.211103] [cluster-256-hpc-256:73814:0]        mm_posix.c:291  UCX  ERROR shm_unlink(/ucx_shm_posix_29465c54) failed: No such file or directory
[1725154761.211935] [cluster-256-hpc-256:71652:0]        mm_posix.c:291  UCX  ERROR shm_unlink(/ucx_shm_posix_43d90032) failed: No such file or directory
[1725154761.211981] [cluster-256-hpc-256:71652:0]        mm_posix.c:291  UCX  ERROR shm_unlink(/ucx_shm_posix_603733fd) failed: No such file or directory
[1725154761.211933] [cluster-256-hpc-256:72641:0]        mm_posix.c:291  UCX  ERROR shm_unlink(/ucx_shm_posix_676dc6a1) failed: No such file or directory
[1725154761.211997] [cluster-256-hpc-256:72641:0]        mm_posix.c:291  UCX  ERROR shm_unlink(/ucx_shm_posix_3def089b) failed: No such file or directory
[1725154761.212036] [cluster-256-hpc-256:73510:0]        mm_posix.c:291  UCX  ERROR shm_unlink(/ucx_shm_posix_6f1f7ce) failed: No such file or directory
[1725154761.212056] [cluster-256-hpc-256:73919:0]        mm_posix.c:291  UCX  ERROR shm_unlink(/ucx_shm_posix_1c205f94) failed: No such file or directory
[1725154761.212106] [cluster-256-hpc-256:73919:0]        mm_posix.c:291  UCX  ERROR shm_unlink(/ucx_shm_posix_233fafa8) failed: No such file or directory
[1725154761.212090] [cluster-256-hpc-256:73510:0]        mm_posix.c:291  UCX  ERROR shm_unlink(/ucx_shm_posix_36e017e7) failed: No such file or directory
[1725154761.212179] [cluster-256-hpc-256:73582:0]        mm_posix.c:291  UCX  ERROR shm_unlink(/ucx_shm_posix_18bd00e9) failed: No such file or directory
[1725154761.212238] [cluster-256-hpc-256:73582:0]        mm_posix.c:291  UCX  ERROR shm_unlink(/ucx_shm_posix_79da16ed) failed: No such file or directory
[1725154761.212483] [cluster-256-hpc-256:73886:0]        mm_posix.c:291  UCX  ERROR shm_unlink(/ucx_shm_posix_8b71f96) failed: No such file or directory
[1725154761.212420] [cluster-256-hpc-256:71876:0]        mm_posix.c:291  UCX  ERROR shm_unlink(/ucx_shm_posix_94ff2ae) failed: No such file or directory
[1725154761.212468] [cluster-256-hpc-256:71876:0]        mm_posix.c:291  UCX  ERROR shm_unlink(/ucx_shm_posix_6553869e) failed: No such file or directory
[1725154761.212514] [cluster-256-hpc-256:72286:0]        mm_posix.c:291  UCX  ERROR shm_unlink(/ucx_shm_posix_7a5ffc16) failed: No such file or directory
[1725154761.212564] [cluster-256-hpc-256:72286:0]        mm_posix.c:291  UCX  ERROR shm_unlink(/ucx_shm_posix_53b4df45) failed: No such file or directory
[1725154761.212538] [cluster-256-hpc-256:73886:0]        mm_posix.c:291  UCX  ERROR shm_unlink(/ucx_shm_posix_79f87a1d) failed: No such file or directory
[1725154761.212611] [cluster-256-hpc-256:73009:0]        mm_posix.c:291  UCX  ERROR shm_unlink(/ucx_shm_posix_552867d7) failed: No such file or directory
[1725154761.212671] [cluster-256-hpc-256:73009:0]        mm_posix.c:291  UCX  ERROR shm_unlink(/ucx_shm_posix_73dfd0) failed: No such file or directory
[1725154761.212866] [cluster-256-hpc-256:73212:0]        mm_posix.c:291  UCX  ERROR shm_unlink(/ucx_shm_posix_6f2b7ee4) failed: No such file or directory
[1725154761.212846] [cluster-256-hpc-256:73881:0]        mm_posix.c:291  UCX  ERROR shm_unlink(/ucx_shm_posix_597c4d79) failed: No such file or directory
[1725154761.212951] [cluster-256-hpc-256:73212:0]        mm_posix.c:291  UCX  ERROR shm_unlink(/ucx_shm_posix_19364ccf) failed: No such file or directory
[1725154761.212899] [cluster-256-hpc-256:73881:0]        mm_posix.c:291  UCX  ERROR shm_unlink(/ucx_shm_posix_4b34511) failed: No such file or directory
[1725154761.213028] [cluster-256-hpc-256:73751:0]        mm_posix.c:291  UCX  ERROR shm_unlink(/ucx_shm_posix_2101b005) failed: No such file or directory
[1725154761.213086] [cluster-256-hpc-256:73751:0]        mm_posix.c:291  UCX  ERROR shm_unlink(/ucx_shm_posix_7c036c64) failed: No such file or directory
[1725154761.213091] [cluster-256-hpc-256:71483:0]        mm_posix.c:291  UCX  ERROR shm_unlink(/ucx_shm_posix_7487519e) failed: No such file or directory
[1725154761.213143] [cluster-256-hpc-256:71483:0]        mm_posix.c:291  UCX  ERROR shm_unlink(/ucx_shm_posix_536da1f4) failed: No such file or directory
[1725154761.213123] [cluster-256-hpc-256:73619:0]        mm_posix.c:291  UCX  ERROR shm_unlink(/ucx_shm_posix_4586c953) failed: No such file or directory
[1725154761.213178] [cluster-256-hpc-256:73619:0]        mm_posix.c:291  UCX  ERROR shm_unlink(/ucx_shm_posix_53c467be) failed: No such file or directory
[1725154761.213319] [cluster-256-hpc-256:73747:0]        mm_posix.c:291  UCX  ERROR shm_unlink(/ucx_shm_posix_251ee2) failed: No such file or directory
[1725154761.213375] [cluster-256-hpc-256:73747:0]        mm_posix.c:291  UCX  ERROR shm_unlink(/ucx_shm_posix_1c30f119) failed: No such file or directory
[1725154761.213570] [cluster-256-hpc-256:72287:0]        mm_posix.c:291  UCX  ERROR shm_unlink(/ucx_shm_posix_652d272e) failed: No such file or directory
[1725154761.213656] [cluster-256-hpc-256:72287:0]        mm_posix.c:291  UCX  ERROR shm_unlink(/ucx_shm_posix_33841cfd) failed: No such file or directory
[1725154761.213751] [cluster-256-hpc-256:71812:0]        mm_posix.c:291  UCX  ERROR shm_unlink(/ucx_shm_posix_60a730b0) failed: No such file or directory
[1725154761.213808] [cluster-256-hpc-256:71812:0]        mm_posix.c:291  UCX  ERROR shm_unlink(/ucx_shm_posix_4a1ec2b7) failed: No such file or directory
[1725154761.213936] [cluster-256-hpc-256:73663:0]        mm_posix.c:291  UCX  ERROR shm_unlink(/ucx_shm_posix_74307115) failed: No such file or directory
[1725154761.213988] [cluster-256-hpc-256:73663:0]        mm_posix.c:291  UCX  ERROR shm_unlink(/ucx_shm_posix_e601f15) failed: No such file or directory
[1725154761.214154] [cluster-256-hpc-256:73387:0]        mm_posix.c:291  UCX  ERROR shm_unlink(/ucx_shm_posix_a801032) failed: No such file or directory
[1725154761.214237] [cluster-256-hpc-256:73647:0]        mm_posix.c:291  UCX  ERROR shm_unlink(/ucx_shm_posix_4740f823) failed: No such file or directory
[1725154761.214212] [cluster-256-hpc-256:73387:0]        mm_posix.c:291  UCX  ERROR shm_unlink(/ucx_shm_posix_7b92983e) failed: No such file or directory
[1725154761.214289] [cluster-256-hpc-256:73647:0]        mm_posix.c:291  UCX  ERROR shm_unlink(/ucx_shm_posix_49f43dbb) failed: No such file or directory
[1725154761.214272] [cluster-256-hpc-256:73330:0]        mm_posix.c:291  UCX  ERROR shm_unlink(/ucx_shm_posix_4f906c5d) failed: No such file or directory
[1725154761.214320] [cluster-256-hpc-256:73330:0]        mm_posix.c:291  UCX  ERROR shm_unlink(/ucx_shm_posix_4b19e000) failed: No such file or directory
[1725154761.214320] [cluster-256-hpc-256:71963:0]        mm_posix.c:291  UCX  ERROR shm_unlink(/ucx_shm_posix_49730b42) failed: No such file or directory
[1725154761.214382] [cluster-256-hpc-256:71963:0]        mm_posix.c:291  UCX  ERROR shm_unlink(/ucx_shm_posix_609d7b54) failed: No such file or directory
[1725154761.214540] [cluster-256-hpc-256:73154:0]        mm_posix.c:291  UCX  ERROR shm_unlink(/ucx_shm_posix_6415744d) failed: No such file or directory
[1725154761.214625] [cluster-256-hpc-256:73354:0]        mm_posix.c:291  UCX  ERROR shm_unlink(/ucx_shm_posix_3938252c) failed: No such file or directory
[1725154761.214595] [cluster-256-hpc-256:73154:0]        mm_posix.c:291  UCX  ERROR shm_unlink(/ucx_shm_posix_dde6532) failed: No such file or directory
[1725154761.214656] [cluster-256-hpc-256:71968:0]        mm_posix.c:291  UCX  ERROR shm_unlink(/ucx_shm_posix_44040c0e) failed: No such file or directory
[1725154761.214706] [cluster-256-hpc-256:71968:0]        mm_posix.c:291  UCX  ERROR shm_unlink(/ucx_shm_posix_2c79c284) failed: No such file or directory
[1725154761.214707] [cluster-256-hpc-256:73182:0]        mm_posix.c:291  UCX  ERROR shm_unlink(/ucx_shm_posix_448560d9) failed: No such file or directory
[1725154761.214653] [cluster-256-hpc-256:73110:0]        mm_posix.c:291  UCX  ERROR shm_unlink(/ucx_shm_posix_1bb3b350) failed: No such file or directory
[1725154761.214725] [cluster-256-hpc-256:73110:0]        mm_posix.c:291  UCX  ERROR shm_unlink(/ucx_shm_posix_2fd3819) failed: No such file or directory
[1725154761.214675] [cluster-256-hpc-256:73354:0]        mm_posix.c:291  UCX  ERROR shm_unlink(/ucx_shm_posix_53e8ff3a) failed: No such file or directory
[1725154761.214765] [cluster-256-hpc-256:73182:0]        mm_posix.c:291  UCX  ERROR shm_unlink(/ucx_shm_posix_32fd37f8) failed: No such file or directory
[1725154761.214821] [cluster-256-hpc-256:72958:0]        mm_posix.c:291  UCX  ERROR shm_unlink(/ucx_shm_posix_47ac8a63) failed: No such file or directory
[1725154761.214846] [cluster-256-hpc-256:72765:0]        mm_posix.c:291  UCX  ERROR shm_unlink(/ucx_shm_posix_190ee6dd) failed: No such file or directory
[1725154761.214900] [cluster-256-hpc-256:72765:0]        mm_posix.c:291  UCX  ERROR shm_unlink(/ucx_shm_posix_ddb3439) failed: No such file or directory
[1725154761.214886] [cluster-256-hpc-256:73281:0]        mm_posix.c:291  UCX  ERROR shm_unlink(/ucx_shm_posix_135fbd91) failed: No such file or directory
[1725154761.214902] [cluster-256-hpc-256:71423:0]        mm_posix.c:291  UCX  ERROR shm_unlink(/ucx_shm_posix_36bef0d0) failed: No such file or directory
[1725154761.214883] [cluster-256-hpc-256:72958:0]        mm_posix.c:291  UCX  ERROR shm_unlink(/ucx_shm_posix_1a8bd637) failed: No such file or directory
[1725154761.214944] [cluster-256-hpc-256:73281:0]        mm_posix.c:291  UCX  ERROR shm_unlink(/ucx_shm_posix_6d6d57bb) failed: No such file or directory
[1725154761.214992] [cluster-256-hpc-256:73776:0]        mm_posix.c:291  UCX  ERROR shm_unlink(/ucx_shm_posix_4353b471) failed: No such file or directory
[1725154761.215049] [cluster-256-hpc-256:73776:0]        mm_posix.c:291  UCX  ERROR shm_unlink(/ucx_shm_posix_4492223) failed: No such file or directory
[1725154761.214964] [cluster-256-hpc-256:71423:0]        mm_posix.c:291  UCX  ERROR shm_unlink(/ucx_shm_posix_50194b16) failed: No such file or directory
[1725154761.215102] [cluster-256-hpc-256:73456:0]        mm_posix.c:291  UCX  ERROR shm_unlink(/ucx_shm_posix_6b12f462) failed: No such file or directory
[1725154761.215168] [cluster-256-hpc-256:73456:0]        mm_posix.c:291  UCX  ERROR shm_unlink(/ucx_shm_posix_45681578) failed: No such file or directory
[1725154761.215100] [cluster-256-hpc-256:73837:0]        mm_posix.c:291  UCX  ERROR shm_unlink(/ucx_shm_posix_bafac5c) failed: No such file or directory
[1725154761.215161] [cluster-256-hpc-256:73837:0]        mm_posix.c:291  UCX  ERROR shm_unlink(/ucx_shm_posix_349e509b) failed: No such file or directory
[1725154761.215126] [cluster-256-hpc-256:73753:0]        mm_posix.c:291  UCX  ERROR shm_unlink(/ucx_shm_posix_603afa8f) failed: No such file or directory
[1725154761.215182] [cluster-256-hpc-256:73753:0]        mm_posix.c:291  UCX  ERROR shm_unlink(/ucx_shm_posix_33b5c08e) failed: No such file or directory
[1725154761.218514] [cluster-256-hpc-256:73540:0]        mm_posix.c:291  UCX  ERROR shm_unlink(/ucx_shm_posix_6c020955) failed: No such file or directory
[1725154761.218612] [cluster-256-hpc-256:73540:0]        mm_posix.c:291  UCX  ERROR shm_unlink(/ucx_shm_posix_e7b1638) failed: No such file or directory
End time: 1725154761
