Start time: 1725153970
WARNING on proc 0: Cannot open log.lammps for writing: Read-only file system (src/lammps.cpp:511)
LAMMPS (17 Apr 2024 - Development - a8687b5)
OMP_NUM_THREADS environment is not set. Defaulting to 1 thread. (src/comm.cpp:98)
  using 1 OpenMP thread(s) per MPI task
Reading data file ...
  triclinic box = (0 0 0) to (22.326 11.1412 13.778966) with tilt (0 -5.02603 0)
  32 by 24 by 32 MPI processor grid
  reading atoms ...
  304 atoms
  reading velocities ...
  304 velocities
  read_data CPU = 0.268 seconds
Replication is creating a 64x64x32 = 131072 times larger system...
  triclinic box = (0 0 0) to (1428.864 713.0368 440.92691) with tilt (0 -160.83296 0)
  48 by 32 by 16 MPI processor grid
  bounding box image = (0 -1 -1) to (0 1 1)
  bounding box extra memory = 0.03 MB
  average # of replicas added to proc = 32.89 out of 131072 (0.03%)
  39845888 atoms
  replicate CPU = 0.372 seconds

CITE-CITE-CITE-CITE-CITE-CITE-CITE-CITE-CITE-CITE-CITE-CITE-CITE

Your simulation uses code contributions which should be cited:
- pair reaxff command: doi:10.1016/j.parco.2011.08.005
- fix qeq/reaxff command: doi:10.1016/j.parco.2011.08.005
The log file lists these citations in BibTeX format.

CITE-CITE-CITE-CITE-CITE-CITE-CITE-CITE-CITE-CITE-CITE-CITE-CITE

Neighbor list info ...
  update: every = 20 steps, delay = 0 steps, check = no
  max neighbors/atom: 2000, page size: 100000
  master list distance cutoff = 11
  ghost atom cutoff = 11
  binsize = 5.5, bins = 290 130 81
  2 neighbor lists, perpetual/occasional/extra = 2 0 0
  (1) pair reaxff, perpetual
      attributes: half, newton off, ghost
      pair build: half/bin/ghost/newtoff
      stencil: full/ghost/bin/3d
      bin: standard
  (2) fix qeq/reax, perpetual, copy from (1)
      attributes: half, newton off
      pair build: copy
      stencil: none
      bin: none
Setting up Verlet run ...
  Unit style    : real
  Current step  : 0
  Time step     : 0.1
Per MPI rank memory allocation (min/avg/max) = 166.2 | 167.8 | 170.5 Mbytes
   Step          Temp          PotEng         Press          E_vdwl         E_coul         Volume    
         0   300           -113.27833      439.02048     -111.57687     -1.7014647      4.4923072e+08
        10   300.76708     -113.28045      807.30077     -111.57901     -1.7014362      4.4923072e+08
        20   302.42351     -113.28524      1696.9908     -111.58392     -1.7013253      4.4923072e+08
        30   302.57588     -113.28557      4297.9273     -111.58447     -1.7010962      4.4923072e+08
        40   300.62223     -113.27967      6393.3854     -111.5789      -1.7007688      4.4923072e+08
        50   297.4189      -113.27008      6471.1497     -111.56968     -1.7004026      4.4923072e+08
        60   294.72952     -113.26202      6185.6329     -111.56199     -1.7000319      4.4923072e+08
        70   294.6668      -113.26179      6831.1904     -111.56213     -1.6996547      4.4923072e+08
        80   297.78808     -113.27107      8233.8978     -111.5718      -1.699276       4.4923072e+08
        90   301.67957     -113.28267      9372.1055     -111.58373     -1.6989385      4.4923072e+08
       100   302.5651      -113.28525      10370.56      -111.58656     -1.698695       4.4923072e+08
Loop time of 89.2956 on 24576 procs for 100 steps with 39845888 atoms

Performance: 0.010 ns/day, 2480.434 hours/ns, 1.120 timesteps/s, 44.622 Matom-step/s
99.9% CPU use with 24576 MPI tasks x 1 OpenMP threads

MPI task timing breakdown:
Section |  min time  |  avg time  |  max time  |%varavg| %total
---------------------------------------------------------------
Pair    | 10.682     | 12.88      | 15.956     |  13.7 | 14.42
Neigh   | 0.22102    | 0.23765    | 0.31577    |   1.1 |  0.27
Comm    | 0.033461   | 1.2183     | 4.3408     |  55.2 |  1.36
Output  | 0.9788     | 1.1889     | 1.2594     |   2.7 |  1.33
Modify  | 71.832     | 73.769     | 74.341     |   3.5 | 82.61
Other   |            | 0.002256   |            |       |  0.00

Nlocal:        1621.33 ave        1673 max        1585 min
Histogram: 1494 7414 6829 647 0 0 0 349 6717 1126
Nghost:        8636.03 ave        8813 max        8524 min
Histogram: 5794 10029 561 0 0 0 0 0 2617 5575
Neighs:         562784 ave      578427 max      550985 min
Histogram: 937 6809 6178 2443 17 0 0 302 6538 1352

Total # of neighbors = 1.3830972e+10
Ave neighs/atom = 347.11164
Neighbor list builds = 5
Dangerous builds not checked
Total wall time: 0:01:32
[1725154089.393282] [cluster-256-hpc-256:42461:0]        mm_posix.c:291  UCX  ERROR shm_unlink(/ucx_shm_posix_319a84db) failed: No such file or directory
[1725154089.393360] [cluster-256-hpc-256:42461:0]        mm_posix.c:291  UCX  ERROR shm_unlink(/ucx_shm_posix_34450e03) failed: No such file or directory
[1725154089.393157] [cluster-256-hpc-256:41350:0]        mm_posix.c:291  UCX  ERROR shm_unlink(/ucx_shm_posix_c810ac4) failed: No such file or directory
[1725154089.393349] [cluster-256-hpc-256:41350:0]        mm_posix.c:291  UCX  ERROR shm_unlink(/ucx_shm_posix_67cace9b) failed: No such file or directory
[1725154089.393188] [cluster-256-hpc-256:41347:0]        mm_posix.c:291  UCX  ERROR shm_unlink(/ucx_shm_posix_6d2f430f) failed: No such file or directory
[1725154089.393129] [cluster-256-hpc-256:41385:0]        mm_posix.c:291  UCX  ERROR shm_unlink(/ucx_shm_posix_61c3f418) failed: No such file or directory
[1725154089.393369] [cluster-256-hpc-256:41385:0]        mm_posix.c:291  UCX  ERROR shm_unlink(/ucx_shm_posix_54835954) failed: No such file or directory
[1725154089.393832] [cluster-256-hpc-256:43202:0]        mm_posix.c:291  UCX  ERROR shm_unlink(/ucx_shm_posix_340e9899) failed: No such file or directory
[1725154089.394030] [cluster-256-hpc-256:43202:0]        mm_posix.c:291  UCX  ERROR shm_unlink(/ucx_shm_posix_2475a67b) failed: No such file or directory
[1725154089.393674] [cluster-256-hpc-256:43241:0]        mm_posix.c:291  UCX  ERROR shm_unlink(/ucx_shm_posix_91dc4c5) failed: No such file or directory
[1725154089.393873] [cluster-256-hpc-256:43241:0]        mm_posix.c:291  UCX  ERROR shm_unlink(/ucx_shm_posix_1cffe2e1) failed: No such file or directory
[1725154089.393765] [cluster-256-hpc-256:43222:0]        mm_posix.c:291  UCX  ERROR shm_unlink(/ucx_shm_posix_28dd95f) failed: No such file or directory
[1725154089.394074] [cluster-256-hpc-256:43222:0]        mm_posix.c:291  UCX  ERROR shm_unlink(/ucx_shm_posix_a814fa8) failed: No such file or directory
[1725154089.393646] [cluster-256-hpc-256:43254:0]        mm_posix.c:291  UCX  ERROR shm_unlink(/ucx_shm_posix_dcd989) failed: No such file or directory
[1725154089.394189] [cluster-256-hpc-256:43254:0]        mm_posix.c:291  UCX  ERROR shm_unlink(/ucx_shm_posix_47b59568) failed: No such file or directory
[1725154089.393700] [cluster-256-hpc-256:43288:0]        mm_posix.c:291  UCX  ERROR shm_unlink(/ucx_shm_posix_1892f7dc) failed: No such file or directory
[1725154089.394011] [cluster-256-hpc-256:43288:0]        mm_posix.c:291  UCX  ERROR shm_unlink(/ucx_shm_posix_181ad504) failed: No such file or directory
[1725154089.393700] [cluster-256-hpc-256:43317:0]        mm_posix.c:291  UCX  ERROR shm_unlink(/ucx_shm_posix_107037e7) failed: No such file or directory
[1725154089.393882] [cluster-256-hpc-256:43317:0]        mm_posix.c:291  UCX  ERROR shm_unlink(/ucx_shm_posix_7a46410) failed: No such file or directory
[1725154089.393498] [cluster-256-hpc-256:43286:0]        mm_posix.c:291  UCX  ERROR shm_unlink(/ucx_shm_posix_5d5f468b) failed: No such file or directory
[1725154089.393946] [cluster-256-hpc-256:43286:0]        mm_posix.c:291  UCX  ERROR shm_unlink(/ucx_shm_posix_18b8ecfb) failed: No such file or directory
[1725154089.393748] [cluster-256-hpc-256:43324:0]        mm_posix.c:291  UCX  ERROR shm_unlink(/ucx_shm_posix_574d4fb4) failed: No such file or directory
[1725154089.394132] [cluster-256-hpc-256:43324:0]        mm_posix.c:291  UCX  ERROR shm_unlink(/ucx_shm_posix_3137d753) failed: No such file or directory
[1725154089.393765] [cluster-256-hpc-256:43350:0]        mm_posix.c:291  UCX  ERROR shm_unlink(/ucx_shm_posix_46bf541f) failed: No such file or directory
[1725154089.394017] [cluster-256-hpc-256:43350:0]        mm_posix.c:291  UCX  ERROR shm_unlink(/ucx_shm_posix_7606eefb) failed: No such file or directory
[1725154089.393415] [cluster-256-hpc-256:43549:0]        mm_posix.c:291  UCX  ERROR shm_unlink(/ucx_shm_posix_35eed666) failed: No such file or directory
[1725154089.394106] [cluster-256-hpc-256:43549:0]        mm_posix.c:291  UCX  ERROR shm_unlink(/ucx_shm_posix_4b9f675d) failed: No such file or directory
[1725154089.393908] [cluster-256-hpc-256:43346:0]        mm_posix.c:291  UCX  ERROR shm_unlink(/ucx_shm_posix_211f60f6) failed: No such file or directory
[1725154089.394063] [cluster-256-hpc-256:43346:0]        mm_posix.c:291  UCX  ERROR shm_unlink(/ucx_shm_posix_28a6a41c) failed: No such file or directory
[1725154089.393806] [cluster-256-hpc-256:43540:0]        mm_posix.c:291  UCX  ERROR shm_unlink(/ucx_shm_posix_43eed2d0) failed: No such file or directory
[1725154089.394140] [cluster-256-hpc-256:43540:0]        mm_posix.c:291  UCX  ERROR shm_unlink(/ucx_shm_posix_4fac8af5) failed: No such file or directory
[1725154089.393984] [cluster-256-hpc-256:43514:0]        mm_posix.c:291  UCX  ERROR shm_unlink(/ucx_shm_posix_3fbf07be) failed: No such file or directory
[1725154089.394083] [cluster-256-hpc-256:43514:0]        mm_posix.c:291  UCX  ERROR shm_unlink(/ucx_shm_posix_5c54be74) failed: No such file or directory
[1725154089.393536] [cluster-256-hpc-256:43683:0]        mm_posix.c:291  UCX  ERROR shm_unlink(/ucx_shm_posix_2a1ca8e0) failed: No such file or directory
[1725154089.394114] [cluster-256-hpc-256:43683:0]        mm_posix.c:291  UCX  ERROR shm_unlink(/ucx_shm_posix_5a712260) failed: No such file or directory
[1725154089.393843] [cluster-256-hpc-256:43534:0]        mm_posix.c:291  UCX  ERROR shm_unlink(/ucx_shm_posix_1899c3d4) failed: No such file or directory
[1725154089.394050] [cluster-256-hpc-256:43534:0]        mm_posix.c:291  UCX  ERROR shm_unlink(/ucx_shm_posix_1ce1222b) failed: No such file or directory
[1725154089.393855] [cluster-256-hpc-256:43651:0]        mm_posix.c:291  UCX  ERROR shm_unlink(/ucx_shm_posix_70dc3617) failed: No such file or directory
[1725154089.394147] [cluster-256-hpc-256:43651:0]        mm_posix.c:291  UCX  ERROR shm_unlink(/ucx_shm_posix_619c648f) failed: No such file or directory
[1725154089.393646] [cluster-256-hpc-256:43614:0]        mm_posix.c:291  UCX  ERROR shm_unlink(/ucx_shm_posix_525d28f5) failed: No such file or directory
[1725154089.394000] [cluster-256-hpc-256:43614:0]        mm_posix.c:291  UCX  ERROR shm_unlink(/ucx_shm_posix_3323a155) failed: No such file or directory
[1725154089.393626] [cluster-256-hpc-256:43794:0]        mm_posix.c:291  UCX  ERROR shm_unlink(/ucx_shm_posix_3b9d4f4c) failed: No such file or directory
[1725154089.393867] [cluster-256-hpc-256:43794:0]        mm_posix.c:291  UCX  ERROR shm_unlink(/ucx_shm_posix_6cef27fd) failed: No such file or directory
[1725154089.393932] [cluster-256-hpc-256:43585:0]        mm_posix.c:291  UCX  ERROR shm_unlink(/ucx_shm_posix_71a93ebc) failed: No such file or directory
[1725154089.394080] [cluster-256-hpc-256:43585:0]        mm_posix.c:291  UCX  ERROR shm_unlink(/ucx_shm_posix_448f4d93) failed: No such file or directory
[1725154089.394076] [cluster-256-hpc-256:43737:0]        mm_posix.c:291  UCX  ERROR shm_unlink(/ucx_shm_posix_2c350434) failed: No such file or directory
[1725154089.394217] [cluster-256-hpc-256:43737:0]        mm_posix.c:291  UCX  ERROR shm_unlink(/ucx_shm_posix_7584e9e8) failed: No such file or directory
[1725154089.393608] [cluster-256-hpc-256:43719:0]        mm_posix.c:291  UCX  ERROR shm_unlink(/ucx_shm_posix_5ef196d) failed: No such file or directory
[1725154089.393988] [cluster-256-hpc-256:43719:0]        mm_posix.c:291  UCX  ERROR shm_unlink(/ucx_shm_posix_78f7a33f) failed: No such file or directory
[1725154089.393447] [cluster-256-hpc-256:43827:0]        mm_posix.c:291  UCX  ERROR shm_unlink(/ucx_shm_posix_6f87d379) failed: No such file or directory
[1725154089.393836] [cluster-256-hpc-256:43827:0]        mm_posix.c:291  UCX  ERROR shm_unlink(/ucx_shm_posix_3e50e29e) failed: No such file or directory
[1725154089.393793] [cluster-256-hpc-256:43685:0]        mm_posix.c:291  UCX  ERROR shm_unlink(/ucx_shm_posix_2272367a) failed: No such file or directory
[1725154089.394040] [cluster-256-hpc-256:43685:0]        mm_posix.c:291  UCX  ERROR shm_unlink(/ucx_shm_posix_62941a89) failed: No such file or directory
[1725154089.394100] [cluster-256-hpc-256:43805:0]        mm_posix.c:291  UCX  ERROR shm_unlink(/ucx_shm_posix_3197acd1) failed: No such file or directory
[1725154089.394226] [cluster-256-hpc-256:43805:0]        mm_posix.c:291  UCX  ERROR shm_unlink(/ucx_shm_posix_56d10421) failed: No such file or directory
[1725154089.393818] [cluster-256-hpc-256:43808:0]        mm_posix.c:291  UCX  ERROR shm_unlink(/ucx_shm_posix_cd57b79) failed: No such file or directory
[1725154089.394028] [cluster-256-hpc-256:43808:0]        mm_posix.c:291  UCX  ERROR shm_unlink(/ucx_shm_posix_596dfe6d) failed: No such file or directory
[1725154089.393829] [cluster-256-hpc-256:43868:0]        mm_posix.c:291  UCX  ERROR shm_unlink(/ucx_shm_posix_7aaa5425) failed: No such file or directory
[1725154089.393914] [cluster-256-hpc-256:43868:0]        mm_posix.c:291  UCX  ERROR shm_unlink(/ucx_shm_posix_18e62108) failed: No such file or directory
[1725154089.393495] [cluster-256-hpc-256:43768:0]        mm_posix.c:291  UCX  ERROR shm_unlink(/ucx_shm_posix_6159c1) failed: No such file or directory
[1725154089.393577] [cluster-256-hpc-256:43768:0]        mm_posix.c:291  UCX  ERROR shm_unlink(/ucx_shm_posix_129d61b1) failed: No such file or directory
[1725154089.393646] [cluster-256-hpc-256:43856:0]        mm_posix.c:291  UCX  ERROR shm_unlink(/ucx_shm_posix_629c4b5d) failed: No such file or directory
[1725154089.394206] [cluster-256-hpc-256:43856:0]        mm_posix.c:291  UCX  ERROR shm_unlink(/ucx_shm_posix_61c1cef2) failed: No such file or directory
[1725154089.393251] [cluster-256-hpc-256:41345:0]        mm_posix.c:291  UCX  ERROR shm_unlink(/ucx_shm_posix_3e36bc8a) failed: No such file or directory
[1725154089.393482] [cluster-256-hpc-256:41345:0]        mm_posix.c:291  UCX  ERROR shm_unlink(/ucx_shm_posix_449d59a4) failed: No such file or directory
[1725154089.393413] [cluster-256-hpc-256:41354:0]        mm_posix.c:291  UCX  ERROR shm_unlink(/ucx_shm_posix_9fb29a2) failed: No such file or directory
[1725154089.393607] [cluster-256-hpc-256:41354:0]        mm_posix.c:291  UCX  ERROR shm_unlink(/ucx_shm_posix_36865a60) failed: No such file or directory
[1725154089.393339] [cluster-256-hpc-256:41421:0]        mm_posix.c:291  UCX  ERROR shm_unlink(/ucx_shm_posix_59e9d635) failed: No such file or directory
[1725154089.393557] [cluster-256-hpc-256:41421:0]        mm_posix.c:291  UCX  ERROR shm_unlink(/ucx_shm_posix_63c2a5b3) failed: No such file or directory
[1725154089.393248] [cluster-256-hpc-256:41423:0]        mm_posix.c:291  UCX  ERROR shm_unlink(/ucx_shm_posix_78f1c8db) failed: No such file or directory
[1725154089.393410] [cluster-256-hpc-256:41423:0]        mm_posix.c:291  UCX  ERROR shm_unlink(/ucx_shm_posix_4f52d287) failed: No such file or directory
[1725154089.393404] [cluster-256-hpc-256:41457:0]        mm_posix.c:291  UCX  ERROR shm_unlink(/ucx_shm_posix_6c89dc04) failed: No such file or directory
[1725154089.393958] [cluster-256-hpc-256:41457:0]        mm_posix.c:291  UCX  ERROR shm_unlink(/ucx_shm_posix_6c5addc3) failed: No such file or directory
[1725154089.393363] [cluster-256-hpc-256:41635:0]        mm_posix.c:291  UCX  ERROR shm_unlink(/ucx_shm_posix_16a8e2c1) failed: No such file or directory
[1725154089.393669] [cluster-256-hpc-256:41635:0]        mm_posix.c:291  UCX  ERROR shm_unlink(/ucx_shm_posix_53deb169) failed: No such file or directory
[1725154089.393561] [cluster-256-hpc-256:41638:0]        mm_posix.c:291  UCX  ERROR shm_unlink(/ucx_shm_posix_6f190180) failed: No such file or directory
[1725154089.394219] [cluster-256-hpc-256:41638:0]        mm_posix.c:291  UCX  ERROR shm_unlink(/ucx_shm_posix_666783c5) failed: No such file or directory
[1725154089.393327] [cluster-256-hpc-256:41643:0]        mm_posix.c:291  UCX  ERROR shm_unlink(/ucx_shm_posix_c16c399) failed: No such file or directory
[1725154089.393610] [cluster-256-hpc-256:41643:0]        mm_posix.c:291  UCX  ERROR shm_unlink(/ucx_shm_posix_4497632d) failed: No such file or directory
[1725154089.393275] [cluster-256-hpc-256:41707:0]        mm_posix.c:291  UCX  ERROR shm_unlink(/ucx_shm_posix_1081739a) failed: No such file or directory
[1725154089.393575] [cluster-256-hpc-256:41707:0]        mm_posix.c:291  UCX  ERROR shm_unlink(/ucx_shm_posix_4e75cef8) failed: No such file or directory
[1725154089.393391] [cluster-256-hpc-256:41736:0]        mm_posix.c:291  UCX  ERROR shm_unlink(/ucx_shm_posix_7163858d) failed: No such file or directory
[1725154089.393718] [cluster-256-hpc-256:41736:0]        mm_posix.c:291  UCX  ERROR shm_unlink(/ucx_shm_posix_35698507) failed: No such file or directory
[1725154089.393429] [cluster-256-hpc-256:41777:0]        mm_posix.c:291  UCX  ERROR shm_unlink(/ucx_shm_posix_1a59c08d) failed: No such file or directory
[1725154089.393772] [cluster-256-hpc-256:41777:0]        mm_posix.c:291  UCX  ERROR shm_unlink(/ucx_shm_posix_1b56f3f8) failed: No such file or directory
[1725154089.393355] [cluster-256-hpc-256:41783:0]        mm_posix.c:291  UCX  ERROR shm_unlink(/ucx_shm_posix_47de512b) failed: No such file or directory
[1725154089.393585] [cluster-256-hpc-256:41783:0]        mm_posix.c:291  UCX  ERROR shm_unlink(/ucx_shm_posix_327fb9b) failed: No such file or directory
[1725154089.393401] [cluster-256-hpc-256:41805:0]        mm_posix.c:291  UCX  ERROR shm_unlink(/ucx_shm_posix_3e78015f) failed: No such file or directory
[1725154089.393759] [cluster-256-hpc-256:41805:0]        mm_posix.c:291  UCX  ERROR shm_unlink(/ucx_shm_posix_66839888) failed: No such file or directory
[1725154089.393583] [cluster-256-hpc-256:41833:0]        mm_posix.c:291  UCX  ERROR shm_unlink(/ucx_shm_posix_5d854fcb) failed: No such file or directory
[1725154089.394064] [cluster-256-hpc-256:41833:0]        mm_posix.c:291  UCX  ERROR shm_unlink(/ucx_shm_posix_2a5276f6) failed: No such file or directory
[1725154089.393420] [cluster-256-hpc-256:41891:0]        mm_posix.c:291  UCX  ERROR shm_unlink(/ucx_shm_posix_440702c3) failed: No such file or directory
[1725154089.393766] [cluster-256-hpc-256:41891:0]        mm_posix.c:291  UCX  ERROR shm_unlink(/ucx_shm_posix_169d2a01) failed: No such file or directory
[1725154089.393302] [cluster-256-hpc-256:41953:0]        mm_posix.c:291  UCX  ERROR shm_unlink(/ucx_shm_posix_50343642) failed: No such file or directory
[1725154089.393387] [cluster-256-hpc-256:41953:0]        mm_posix.c:291  UCX  ERROR shm_unlink(/ucx_shm_posix_275e7375) failed: No such file or directory
[1725154089.393493] [cluster-256-hpc-256:41954:0]        mm_posix.c:291  UCX  ERROR shm_unlink(/ucx_shm_posix_51decac2) failed: No such file or directory
[1725154089.393663] [cluster-256-hpc-256:41954:0]        mm_posix.c:291  UCX  ERROR shm_unlink(/ucx_shm_posix_429c294) failed: No such file or directory
[1725154089.393389] [cluster-256-hpc-256:42007:0]        mm_posix.c:291  UCX  ERROR shm_unlink(/ucx_shm_posix_46afbf51) failed: No such file or directory
[1725154089.393621] [cluster-256-hpc-256:42007:0]        mm_posix.c:291  UCX  ERROR shm_unlink(/ucx_shm_posix_596cf350) failed: No such file or directory
[1725154089.393439] [cluster-256-hpc-256:42050:0]        mm_posix.c:291  UCX  ERROR shm_unlink(/ucx_shm_posix_6367f77e) failed: No such file or directory
[1725154089.393835] [cluster-256-hpc-256:42050:0]        mm_posix.c:291  UCX  ERROR shm_unlink(/ucx_shm_posix_3acda3eb) failed: No such file or directory
[1725154089.393437] [cluster-256-hpc-256:42003:0]        mm_posix.c:291  UCX  ERROR shm_unlink(/ucx_shm_posix_13ecbc9f) failed: No such file or directory
[1725154089.393686] [cluster-256-hpc-256:42003:0]        mm_posix.c:291  UCX  ERROR shm_unlink(/ucx_shm_posix_5863e828) failed: No such file or directory
[1725154089.393468] [cluster-256-hpc-256:42019:0]        mm_posix.c:291  UCX  ERROR shm_unlink(/ucx_shm_posix_636d10d1) failed: No such file or directory
[1725154089.394063] [cluster-256-hpc-256:42019:0]        mm_posix.c:291  UCX  ERROR shm_unlink(/ucx_shm_posix_29bbe832) failed: No such file or directory
[1725154089.393441] [cluster-256-hpc-256:42081:0]        mm_posix.c:291  UCX  ERROR shm_unlink(/ucx_shm_posix_1fe966d7) failed: No such file or directory
[1725154089.393834] [cluster-256-hpc-256:42081:0]        mm_posix.c:291  UCX  ERROR shm_unlink(/ucx_shm_posix_754894f1) failed: No such file or directory
[1725154089.393424] [cluster-256-hpc-256:42128:0]        mm_posix.c:291  UCX  ERROR shm_unlink(/ucx_shm_posix_18ea1d23) failed: No such file or directory
[1725154089.393818] [cluster-256-hpc-256:42128:0]        mm_posix.c:291  UCX  ERROR shm_unlink(/ucx_shm_posix_71a38228) failed: No such file or directory
[1725154089.393534] [cluster-256-hpc-256:42127:0]        mm_posix.c:291  UCX  ERROR shm_unlink(/ucx_shm_posix_41715ed0) failed: No such file or directory
[1725154089.393818] [cluster-256-hpc-256:42127:0]        mm_posix.c:291  UCX  ERROR shm_unlink(/ucx_shm_posix_6331b0b9) failed: No such file or directory
[1725154089.393386] [cluster-256-hpc-256:42252:0]        mm_posix.c:291  UCX  ERROR shm_unlink(/ucx_shm_posix_332a37d0) failed: No such file or directory
[1725154089.393621] [cluster-256-hpc-256:42252:0]        mm_posix.c:291  UCX  ERROR shm_unlink(/ucx_shm_posix_5113ab1e) failed: No such file or directory
[1725154089.393452] [cluster-256-hpc-256:42394:0]        mm_posix.c:291  UCX  ERROR shm_unlink(/ucx_shm_posix_2b755a55) failed: No such file or directory
[1725154089.393840] [cluster-256-hpc-256:42394:0]        mm_posix.c:291  UCX  ERROR shm_unlink(/ucx_shm_posix_a833597) failed: No such file or directory
[1725154089.393588] [cluster-256-hpc-256:42360:0]        mm_posix.c:291  UCX  ERROR shm_unlink(/ucx_shm_posix_393fc673) failed: No such file or directory
[1725154089.393979] [cluster-256-hpc-256:42360:0]        mm_posix.c:291  UCX  ERROR shm_unlink(/ucx_shm_posix_7ba4acad) failed: No such file or directory
[1725154089.393483] [cluster-256-hpc-256:42400:0]        mm_posix.c:291  UCX  ERROR shm_unlink(/ucx_shm_posix_6307259a) failed: No such file or directory
[1725154089.393589] [cluster-256-hpc-256:42400:0]        mm_posix.c:291  UCX  ERROR shm_unlink(/ucx_shm_posix_527a0947) failed: No such file or directory
[1725154089.393449] [cluster-256-hpc-256:42409:0]        mm_posix.c:291  UCX  ERROR shm_unlink(/ucx_shm_posix_222b5447) failed: No such file or directory
[1725154089.393870] [cluster-256-hpc-256:42409:0]        mm_posix.c:291  UCX  ERROR shm_unlink(/ucx_shm_posix_1fc51bcb) failed: No such file or directory
[1725154089.393453] [cluster-256-hpc-256:42517:0]        mm_posix.c:291  UCX  ERROR shm_unlink(/ucx_shm_posix_67a4c7ce) failed: No such file or directory
[1725154089.393874] [cluster-256-hpc-256:42517:0]        mm_posix.c:291  UCX  ERROR shm_unlink(/ucx_shm_posix_5136a7f1) failed: No such file or directory
[1725154089.393581] [cluster-256-hpc-256:42660:0]        mm_posix.c:291  UCX  ERROR shm_unlink(/ucx_shm_posix_7652ad2c) failed: No such file or directory
[1725154089.394065] [cluster-256-hpc-256:42660:0]        mm_posix.c:291  UCX  ERROR shm_unlink(/ucx_shm_posix_73cda234) failed: No such file or directory
[1725154089.393489] [cluster-256-hpc-256:42625:0]        mm_posix.c:291  UCX  ERROR shm_unlink(/ucx_shm_posix_b3473b) failed: No such file or directory
[1725154089.393556] [cluster-256-hpc-256:42625:0]        mm_posix.c:291  UCX  ERROR shm_unlink(/ucx_shm_posix_3de7be6) failed: No such file or directory
[1725154089.393372] [cluster-256-hpc-256:42663:0]        mm_posix.c:291  UCX  ERROR shm_unlink(/ucx_shm_posix_692f48e0) failed: No such file or directory
[1725154089.393673] [cluster-256-hpc-256:42663:0]        mm_posix.c:291  UCX  ERROR shm_unlink(/ucx_shm_posix_3abedbef) failed: No such file or directory
[1725154089.393433] [cluster-256-hpc-256:42685:0]        mm_posix.c:291  UCX  ERROR shm_unlink(/ucx_shm_posix_5e8720a4) failed: No such file or directory
[1725154089.394028] [cluster-256-hpc-256:42685:0]        mm_posix.c:291  UCX  ERROR shm_unlink(/ucx_shm_posix_3f6c2f31) failed: No such file or directory
[1725154089.393357] [cluster-256-hpc-256:42732:0]        mm_posix.c:291  UCX  ERROR shm_unlink(/ucx_shm_posix_7d012578) failed: No such file or directory
[1725154089.393931] [cluster-256-hpc-256:42732:0]        mm_posix.c:291  UCX  ERROR shm_unlink(/ucx_shm_posix_6c1b41c5) failed: No such file or directory
[1725154089.393542] [cluster-256-hpc-256:42851:0]        mm_posix.c:291  UCX  ERROR shm_unlink(/ucx_shm_posix_4c01d22d) failed: No such file or directory
[1725154089.393852] [cluster-256-hpc-256:42851:0]        mm_posix.c:291  UCX  ERROR shm_unlink(/ucx_shm_posix_47feb881) failed: No such file or directory
[1725154089.393671] [cluster-256-hpc-256:42819:0]        mm_posix.c:291  UCX  ERROR shm_unlink(/ucx_shm_posix_74691cb1) failed: No such file or directory
[1725154089.394001] [cluster-256-hpc-256:42819:0]        mm_posix.c:291  UCX  ERROR shm_unlink(/ucx_shm_posix_39d46e6e) failed: No such file or directory
[1725154089.393769] [cluster-256-hpc-256:42938:0]        mm_posix.c:291  UCX  ERROR shm_unlink(/ucx_shm_posix_78e87204) failed: No such file or directory
[1725154089.393900] [cluster-256-hpc-256:42938:0]        mm_posix.c:291  UCX  ERROR shm_unlink(/ucx_shm_posix_5a5ea89f) failed: No such file or directory
[1725154089.393724] [cluster-256-hpc-256:42882:0]        mm_posix.c:291  UCX  ERROR shm_unlink(/ucx_shm_posix_54a96216) failed: No such file or directory
[1725154089.394018] [cluster-256-hpc-256:42882:0]        mm_posix.c:291  UCX  ERROR shm_unlink(/ucx_shm_posix_5d8283c) failed: No such file or directory
[1725154089.393679] [cluster-256-hpc-256:42974:0]        mm_posix.c:291  UCX  ERROR shm_unlink(/ucx_shm_posix_670eae20) failed: No such file or directory
[1725154089.394126] [cluster-256-hpc-256:42974:0]        mm_posix.c:291  UCX  ERROR shm_unlink(/ucx_shm_posix_46adb571) failed: No such file or directory
[1725154089.393872] [cluster-256-hpc-256:42939:0]        mm_posix.c:291  UCX  ERROR shm_unlink(/ucx_shm_posix_bfc2502) failed: No such file or directory
[1725154089.394039] [cluster-256-hpc-256:42939:0]        mm_posix.c:291  UCX  ERROR shm_unlink(/ucx_shm_posix_4a5e2156) failed: No such file or directory
[1725154089.393434] [cluster-256-hpc-256:43044:0]        mm_posix.c:291  UCX  ERROR shm_unlink(/ucx_shm_posix_21b4f8f) failed: No such file or directory
[1725154089.393834] [cluster-256-hpc-256:43044:0]        mm_posix.c:291  UCX  ERROR shm_unlink(/ucx_shm_posix_705b97c2) failed: No such file or directory
[1725154089.393472] [cluster-256-hpc-256:43013:0]        mm_posix.c:291  UCX  ERROR shm_unlink(/ucx_shm_posix_30ae6017) failed: No such file or directory
[1725154089.393965] [cluster-256-hpc-256:43013:0]        mm_posix.c:291  UCX  ERROR shm_unlink(/ucx_shm_posix_702e7f85) failed: No such file or directory
[1725154089.394010] [cluster-256-hpc-256:43051:0]        mm_posix.c:291  UCX  ERROR shm_unlink(/ucx_shm_posix_74dfd909) failed: No such file or directory
[1725154089.394178] [cluster-256-hpc-256:43051:0]        mm_posix.c:291  UCX  ERROR shm_unlink(/ucx_shm_posix_78de1ac9) failed: No such file or directory
[1725154089.393807] [cluster-256-hpc-256:43103:0]        mm_posix.c:291  UCX  ERROR shm_unlink(/ucx_shm_posix_6b895dcf) failed: No such file or directory
[1725154089.394051] [cluster-256-hpc-256:43103:0]        mm_posix.c:291  UCX  ERROR shm_unlink(/ucx_shm_posix_b02757c) failed: No such file or directory
[1725154089.393481] [cluster-256-hpc-256:43141:0]        mm_posix.c:291  UCX  ERROR shm_unlink(/ucx_shm_posix_547de33e) failed: No such file or directory
[1725154089.393961] [cluster-256-hpc-256:43141:0]        mm_posix.c:291  UCX  ERROR shm_unlink(/ucx_shm_posix_2569b43f) failed: No such file or directory
[1725154089.393541] [cluster-256-hpc-256:43137:0]        mm_posix.c:291  UCX  ERROR shm_unlink(/ucx_shm_posix_c5c9f90) failed: No such file or directory
[1725154089.393976] [cluster-256-hpc-256:43137:0]        mm_posix.c:291  UCX  ERROR shm_unlink(/ucx_shm_posix_cdd9bd9) failed: No such file or directory
[1725154089.393647] [cluster-256-hpc-256:43167:0]        mm_posix.c:291  UCX  ERROR shm_unlink(/ucx_shm_posix_6b6e19c9) failed: No such file or directory
[1725154089.394115] [cluster-256-hpc-256:43167:0]        mm_posix.c:291  UCX  ERROR shm_unlink(/ucx_shm_posix_814ed9e) failed: No such file or directory
[1725154089.393908] [cluster-256-hpc-256:42791:0]        mm_posix.c:291  UCX  ERROR shm_unlink(/ucx_shm_posix_444c41a9) failed: No such file or directory
[1725154089.394085] [cluster-256-hpc-256:42791:0]        mm_posix.c:291  UCX  ERROR shm_unlink(/ucx_shm_posix_52ad6b2c) failed: No such file or directory
[1725154089.393885] [cluster-256-hpc-256:42872:0]        mm_posix.c:291  UCX  ERROR shm_unlink(/ucx_shm_posix_2416a4bd) failed: No such file or directory
[1725154089.394155] [cluster-256-hpc-256:42872:0]        mm_posix.c:291  UCX  ERROR shm_unlink(/ucx_shm_posix_31f26620) failed: No such file or directory
[1725154089.394051] [cluster-256-hpc-256:41347:0]        mm_posix.c:291  UCX  ERROR shm_unlink(/ucx_shm_posix_37810055) failed: No such file or directory
[1725154089.393936] [cluster-256-hpc-256:41422:0]        mm_posix.c:291  UCX  ERROR shm_unlink(/ucx_shm_posix_61430aa4) failed: No such file or directory
[1725154089.394171] [cluster-256-hpc-256:41422:0]        mm_posix.c:291  UCX  ERROR shm_unlink(/ucx_shm_posix_26940646) failed: No such file or directory
[1725154089.393811] [cluster-256-hpc-256:41646:0]        mm_posix.c:291  UCX  ERROR shm_unlink(/ucx_shm_posix_4ff67562) failed: No such file or directory
[1725154089.394042] [cluster-256-hpc-256:41646:0]        mm_posix.c:291  UCX  ERROR shm_unlink(/ucx_shm_posix_13483a41) failed: No such file or directory
[1725154089.393609] [cluster-256-hpc-256:41745:0]        mm_posix.c:291  UCX  ERROR shm_unlink(/ucx_shm_posix_16ee3aab) failed: No such file or directory
[1725154089.394094] [cluster-256-hpc-256:41745:0]        mm_posix.c:291  UCX  ERROR shm_unlink(/ucx_shm_posix_90221bc) failed: No such file or directory
[1725154089.393743] [cluster-256-hpc-256:41897:0]        mm_posix.c:291  UCX  ERROR shm_unlink(/ucx_shm_posix_4c5be7c) failed: No such file or directory
[1725154089.394020] [cluster-256-hpc-256:41897:0]        mm_posix.c:291  UCX  ERROR shm_unlink(/ucx_shm_posix_1c82bf06) failed: No such file or directory
[1725154089.393611] [cluster-256-hpc-256:42129:0]        mm_posix.c:291  UCX  ERROR shm_unlink(/ucx_shm_posix_ef566d2) failed: No such file or directory
[1725154089.393990] [cluster-256-hpc-256:42129:0]        mm_posix.c:291  UCX  ERROR shm_unlink(/ucx_shm_posix_4fa876f1) failed: No such file or directory
[1725154089.393892] [cluster-256-hpc-256:42190:0]        mm_posix.c:291  UCX  ERROR shm_unlink(/ucx_shm_posix_776a9451) failed: No such file or directory
[1725154089.394039] [cluster-256-hpc-256:42190:0]        mm_posix.c:291  UCX  ERROR shm_unlink(/ucx_shm_posix_7acdd073) failed: No such file or directory
[1725154089.393726] [cluster-256-hpc-256:42248:0]        mm_posix.c:291  UCX  ERROR shm_unlink(/ucx_shm_posix_3be9f1c2) failed: No such file or directory
[1725154089.393887] [cluster-256-hpc-256:42248:0]        mm_posix.c:291  UCX  ERROR shm_unlink(/ucx_shm_posix_3b90a166) failed: No such file or directory
[1725154089.393670] [cluster-256-hpc-256:42276:0]        mm_posix.c:291  UCX  ERROR shm_unlink(/ucx_shm_posix_6593d54f) failed: No such file or directory
[1725154089.394014] [cluster-256-hpc-256:42276:0]        mm_posix.c:291  UCX  ERROR shm_unlink(/ucx_shm_posix_606491f6) failed: No such file or directory
[1725154089.393610] [cluster-256-hpc-256:42218:0]        mm_posix.c:291  UCX  ERROR shm_unlink(/ucx_shm_posix_444bad25) failed: No such file or directory
[1725154089.394094] [cluster-256-hpc-256:42218:0]        mm_posix.c:291  UCX  ERROR shm_unlink(/ucx_shm_posix_2beb8f55) failed: No such file or directory
[1725154089.393952] [cluster-256-hpc-256:42466:0]        mm_posix.c:291  UCX  ERROR shm_unlink(/ucx_shm_posix_20c2016e) failed: No such file or directory
[1725154089.394084] [cluster-256-hpc-256:42466:0]        mm_posix.c:291  UCX  ERROR shm_unlink(/ucx_shm_posix_cb9f248) failed: No such file or directory
[1725154089.393629] [cluster-256-hpc-256:42497:0]        mm_posix.c:291  UCX  ERROR shm_unlink(/ucx_shm_posix_52775169) failed: No such file or directory
[1725154089.394099] [cluster-256-hpc-256:42497:0]        mm_posix.c:291  UCX  ERROR shm_unlink(/ucx_shm_posix_22fe41e4) failed: No such file or directory
[1725154089.393788] [cluster-256-hpc-256:42567:0]        mm_posix.c:291  UCX  ERROR shm_unlink(/ucx_shm_posix_5525bc42) failed: No such file or directory
[1725154089.393905] [cluster-256-hpc-256:42567:0]        mm_posix.c:291  UCX  ERROR shm_unlink(/ucx_shm_posix_283c9302) failed: No such file or directory
[1725154089.394062] [cluster-256-hpc-256:42569:0]        mm_posix.c:291  UCX  ERROR shm_unlink(/ucx_shm_posix_5cc27ead) failed: No such file or directory
[1725154089.394127] [cluster-256-hpc-256:42569:0]        mm_posix.c:291  UCX  ERROR shm_unlink(/ucx_shm_posix_f30fd98) failed: No such file or directory
[1725154089.393916] [cluster-256-hpc-256:42758:0]        mm_posix.c:291  UCX  ERROR shm_unlink(/ucx_shm_posix_acbfe80) failed: No such file or directory
[1725154089.394164] [cluster-256-hpc-256:42758:0]        mm_posix.c:291  UCX  ERROR shm_unlink(/ucx_shm_posix_6686ea67) failed: No such file or directory
[1725154089.478793] [cluster-256-hpc-256:41385:0]        mm_posix.c:291  UCX  ERROR shm_unlink(/ucx_shm_posix_135cbd9f) failed: No such file or directory
[1725154089.478897] [cluster-256-hpc-256:41385:0]        mm_posix.c:291  UCX  ERROR shm_unlink(/ucx_shm_posix_706396f5) failed: No such file or directory
[1725154089.478724] [cluster-256-hpc-256:41354:0]        mm_posix.c:291  UCX  ERROR shm_unlink(/ucx_shm_posix_21a1980c) failed: No such file or directory
[1725154089.478998] [cluster-256-hpc-256:43768:0]        mm_posix.c:291  UCX  ERROR shm_unlink(/ucx_shm_posix_1b243f03) failed: No such file or directory
[1725154089.478859] [cluster-256-hpc-256:41954:0]        mm_posix.c:291  UCX  ERROR shm_unlink(/ucx_shm_posix_2693e475) failed: No such file or directory
[1725154089.478952] [cluster-256-hpc-256:41954:0]        mm_posix.c:291  UCX  ERROR shm_unlink(/ucx_shm_posix_582c0f81) failed: No such file or directory
[1725154089.479084] [cluster-256-hpc-256:43768:0]        mm_posix.c:291  UCX  ERROR shm_unlink(/ucx_shm_posix_2ff06988) failed: No such file or directory
[1725154089.480173] [cluster-256-hpc-256:41805:0]        mm_posix.c:291  UCX  ERROR shm_unlink(/ucx_shm_posix_74a498fc) failed: No such file or directory
[1725154089.480255] [cluster-256-hpc-256:41805:0]        mm_posix.c:291  UCX  ERROR shm_unlink(/ucx_shm_posix_3ce810c7) failed: No such file or directory
[1725154089.480213] [cluster-256-hpc-256:43651:0]        mm_posix.c:291  UCX  ERROR shm_unlink(/ucx_shm_posix_5666edd7) failed: No such file or directory
[1725154089.480297] [cluster-256-hpc-256:43651:0]        mm_posix.c:291  UCX  ERROR shm_unlink(/ucx_shm_posix_73ff7165) failed: No such file or directory
[1725154089.480297] [cluster-256-hpc-256:42625:0]        mm_posix.c:291  UCX  ERROR shm_unlink(/ucx_shm_posix_7bfa570b) failed: No such file or directory
[1725154089.480376] [cluster-256-hpc-256:42625:0]        mm_posix.c:291  UCX  ERROR shm_unlink(/ucx_shm_posix_27b11d57) failed: No such file or directory
[1725154089.480427] [cluster-256-hpc-256:43137:0]        mm_posix.c:291  UCX  ERROR shm_unlink(/ucx_shm_posix_4b7f43eb) failed: No such file or directory
[1725154089.480400] [cluster-256-hpc-256:42461:0]        mm_posix.c:291  UCX  ERROR shm_unlink(/ucx_shm_posix_9f004c8) failed: No such file or directory
[1725154089.480517] [cluster-256-hpc-256:42461:0]        mm_posix.c:291  UCX  ERROR shm_unlink(/ucx_shm_posix_5af05629) failed: No such file or directory
[1725154089.480285] [cluster-256-hpc-256:41423:0]        mm_posix.c:291  UCX  ERROR shm_unlink(/ucx_shm_posix_4fbf1cbd) failed: No such file or directory
[1725154089.480400] [cluster-256-hpc-256:41423:0]        mm_posix.c:291  UCX  ERROR shm_unlink(/ucx_shm_posix_65c52a4c) failed: No such file or directory
[1725154089.480510] [cluster-256-hpc-256:43137:0]        mm_posix.c:291  UCX  ERROR shm_unlink(/ucx_shm_posix_5606380a) failed: No such file or directory
[1725154089.480660] [cluster-256-hpc-256:41457:0]        mm_posix.c:291  UCX  ERROR shm_unlink(/ucx_shm_posix_52a2906c) failed: No such file or directory
[1725154089.480758] [cluster-256-hpc-256:41457:0]        mm_posix.c:291  UCX  ERROR shm_unlink(/ucx_shm_posix_72da4547) failed: No such file or directory
[1725154089.480870] [cluster-256-hpc-256:43317:0]        mm_posix.c:291  UCX  ERROR shm_unlink(/ucx_shm_posix_16db6a16) failed: No such file or directory
[1725154089.480960] [cluster-256-hpc-256:43317:0]        mm_posix.c:291  UCX  ERROR shm_unlink(/ucx_shm_posix_4da49e21) failed: No such file or directory
[1725154089.480866] [cluster-256-hpc-256:42019:0]        mm_posix.c:291  UCX  ERROR shm_unlink(/ucx_shm_posix_36b66fab) failed: No such file or directory
[1725154089.480993] [cluster-256-hpc-256:42019:0]        mm_posix.c:291  UCX  ERROR shm_unlink(/ucx_shm_posix_7520e432) failed: No such file or directory
[1725154089.480928] [cluster-256-hpc-256:42517:0]        mm_posix.c:291  UCX  ERROR shm_unlink(/ucx_shm_posix_32543661) failed: No such file or directory
[1725154089.480980] [cluster-256-hpc-256:42409:0]        mm_posix.c:291  UCX  ERROR shm_unlink(/ucx_shm_posix_caa7360) failed: No such file or directory
[1725154089.481100] [cluster-256-hpc-256:42409:0]        mm_posix.c:291  UCX  ERROR shm_unlink(/ucx_shm_posix_47f8b5a) failed: No such file or directory
[1725154089.480986] [cluster-256-hpc-256:42663:0]        mm_posix.c:291  UCX  ERROR shm_unlink(/ucx_shm_posix_36d6e21f) failed: No such file or directory
[1725154089.481089] [cluster-256-hpc-256:42663:0]        mm_posix.c:291  UCX  ERROR shm_unlink(/ucx_shm_posix_274359a8) failed: No such file or directory
[1725154089.481085] [cluster-256-hpc-256:43202:0]        mm_posix.c:291  UCX  ERROR shm_unlink(/ucx_shm_posix_4d3774ef) failed: No such file or directory
[1725154089.481151] [cluster-256-hpc-256:43202:0]        mm_posix.c:291  UCX  ERROR shm_unlink(/ucx_shm_posix_18dddc15) failed: No such file or directory
[1725154089.481140] [cluster-256-hpc-256:43794:0]        mm_posix.c:291  UCX  ERROR shm_unlink(/ucx_shm_posix_5ca8b387) failed: No such file or directory
[1725154089.481252] [cluster-256-hpc-256:43794:0]        mm_posix.c:291  UCX  ERROR shm_unlink(/ucx_shm_posix_7507186f) failed: No such file or directory
[1725154089.481137] [cluster-256-hpc-256:43685:0]        mm_posix.c:291  UCX  ERROR shm_unlink(/ucx_shm_posix_5cbc7936) failed: No such file or directory
[1725154089.481002] [cluster-256-hpc-256:42517:0]        mm_posix.c:291  UCX  ERROR shm_unlink(/ucx_shm_posix_19194452) failed: No such file or directory
[1725154089.481002] [cluster-256-hpc-256:41421:0]        mm_posix.c:291  UCX  ERROR shm_unlink(/ucx_shm_posix_46f9ce97) failed: No such file or directory
[1725154089.481045] [cluster-256-hpc-256:41891:0]        mm_posix.c:291  UCX  ERROR shm_unlink(/ucx_shm_posix_6af2a20f) failed: No such file or directory
[1725154089.481222] [cluster-256-hpc-256:41953:0]        mm_posix.c:291  UCX  ERROR shm_unlink(/ucx_shm_posix_7d3a0884) failed: No such file or directory
[1725154089.481309] [cluster-256-hpc-256:42050:0]        mm_posix.c:291  UCX  ERROR shm_unlink(/ucx_shm_posix_7e9bded2) failed: No such file or directory
[1725154089.481384] [cluster-256-hpc-256:42050:0]        mm_posix.c:291  UCX  ERROR shm_unlink(/ucx_shm_posix_6a893952) failed: No such file or directory
[1725154089.481414] [cluster-256-hpc-256:42129:0]        mm_posix.c:291  UCX  ERROR shm_unlink(/ucx_shm_posix_6c816f81) failed: No such file or directory
[1725154089.481302] [cluster-256-hpc-256:42394:0]        mm_posix.c:291  UCX  ERROR shm_unlink(/ucx_shm_posix_63ec61a2) failed: No such file or directory
[1725154089.481375] [cluster-256-hpc-256:42394:0]        mm_posix.c:291  UCX  ERROR shm_unlink(/ucx_shm_posix_336e2bc2) failed: No such file or directory
[1725154089.481438] [cluster-256-hpc-256:42360:0]        mm_posix.c:291  UCX  ERROR shm_unlink(/ucx_shm_posix_2b212193) failed: No such file or directory
[1725154089.481274] [cluster-256-hpc-256:43685:0]        mm_posix.c:291  UCX  ERROR shm_unlink(/ucx_shm_posix_1126678e) failed: No such file or directory
[1725154089.481368] [cluster-256-hpc-256:42660:0]        mm_posix.c:291  UCX  ERROR shm_unlink(/ucx_shm_posix_7274c22b) failed: No such file or directory
[1725154089.481459] [cluster-256-hpc-256:42660:0]        mm_posix.c:291  UCX  ERROR shm_unlink(/ucx_shm_posix_3bc34e83) failed: No such file or directory
[1725154089.481162] [cluster-256-hpc-256:42938:0]        mm_posix.c:291  UCX  ERROR shm_unlink(/ucx_shm_posix_6c06c2f) failed: No such file or directory
[1725154089.481260] [cluster-256-hpc-256:42938:0]        mm_posix.c:291  UCX  ERROR shm_unlink(/ucx_shm_posix_488517a1) failed: No such file or directory
[1725154089.481387] [cluster-256-hpc-256:43241:0]        mm_posix.c:291  UCX  ERROR shm_unlink(/ucx_shm_posix_260ce134) failed: No such file or directory
[1725154089.481450] [cluster-256-hpc-256:43241:0]        mm_posix.c:291  UCX  ERROR shm_unlink(/ucx_shm_posix_4e984710) failed: No such file or directory
[1725154089.481156] [cluster-256-hpc-256:43286:0]        mm_posix.c:291  UCX  ERROR shm_unlink(/ucx_shm_posix_5bce89fb) failed: No such file or directory
[1725154089.481246] [cluster-256-hpc-256:43286:0]        mm_posix.c:291  UCX  ERROR shm_unlink(/ucx_shm_posix_6b9a6f69) failed: No such file or directory
[1725154089.481392] [cluster-256-hpc-256:43350:0]        mm_posix.c:291  UCX  ERROR shm_unlink(/ucx_shm_posix_29b902aa) failed: No such file or directory
[1725154089.481467] [cluster-256-hpc-256:43350:0]        mm_posix.c:291  UCX  ERROR shm_unlink(/ucx_shm_posix_6102e238) failed: No such file or directory
[1725154089.481349] [cluster-256-hpc-256:43549:0]        mm_posix.c:291  UCX  ERROR shm_unlink(/ucx_shm_posix_1ab6dfe3) failed: No such file or directory
[1725154089.481430] [cluster-256-hpc-256:43549:0]        mm_posix.c:291  UCX  ERROR shm_unlink(/ucx_shm_posix_2ceb1caa) failed: No such file or directory
[1725154089.481313] [cluster-256-hpc-256:43514:0]        mm_posix.c:291  UCX  ERROR shm_unlink(/ucx_shm_posix_7a675543) failed: No such file or directory
[1725154089.481380] [cluster-256-hpc-256:43514:0]        mm_posix.c:291  UCX  ERROR shm_unlink(/ucx_shm_posix_7660ecce) failed: No such file or directory
[1725154089.481257] [cluster-256-hpc-256:43805:0]        mm_posix.c:291  UCX  ERROR shm_unlink(/ucx_shm_posix_381455f8) failed: No such file or directory
[1725154089.481352] [cluster-256-hpc-256:43805:0]        mm_posix.c:291  UCX  ERROR shm_unlink(/ucx_shm_posix_27c81686) failed: No such file or directory
[1725154089.481394] [cluster-256-hpc-256:43808:0]        mm_posix.c:291  UCX  ERROR shm_unlink(/ucx_shm_posix_7b09b6d) failed: No such file or directory
[1725154089.481458] [cluster-256-hpc-256:43808:0]        mm_posix.c:291  UCX  ERROR shm_unlink(/ucx_shm_posix_3023f9d0) failed: No such file or directory
[1725154089.481380] [cluster-256-hpc-256:43868:0]        mm_posix.c:291  UCX  ERROR shm_unlink(/ucx_shm_posix_2143f785) failed: No such file or directory
[1725154089.481441] [cluster-256-hpc-256:43868:0]        mm_posix.c:291  UCX  ERROR shm_unlink(/ucx_shm_posix_fd4c363) failed: No such file or directory
[1725154089.481216] [cluster-256-hpc-256:41777:0]        mm_posix.c:291  UCX  ERROR shm_unlink(/ucx_shm_posix_196d06c0) failed: No such file or directory
[1725154089.481686] [cluster-256-hpc-256:41345:0]        mm_posix.c:291  UCX  ERROR shm_unlink(/ucx_shm_posix_61d2a372) failed: No such file or directory
[1725154089.481748] [cluster-256-hpc-256:41345:0]        mm_posix.c:291  UCX  ERROR shm_unlink(/ucx_shm_posix_5ff2fcab) failed: No such file or directory
[1725154089.481582] [cluster-256-hpc-256:41643:0]        mm_posix.c:291  UCX  ERROR shm_unlink(/ucx_shm_posix_38ac6d9d) failed: No such file or directory
[1725154089.481684] [cluster-256-hpc-256:41891:0]        mm_posix.c:291  UCX  ERROR shm_unlink(/ucx_shm_posix_5761289e) failed: No such file or directory
[1725154089.481712] [cluster-256-hpc-256:42007:0]        mm_posix.c:291  UCX  ERROR shm_unlink(/ucx_shm_posix_16c2d707) failed: No such file or directory
[1725154089.481799] [cluster-256-hpc-256:42007:0]        mm_posix.c:291  UCX  ERROR shm_unlink(/ucx_shm_posix_3515a73b) failed: No such file or directory
[1725154089.481623] [cluster-256-hpc-256:42081:0]        mm_posix.c:291  UCX  ERROR shm_unlink(/ucx_shm_posix_50229532) failed: No such file or directory
[1725154089.481687] [cluster-256-hpc-256:42081:0]        mm_posix.c:291  UCX  ERROR shm_unlink(/ucx_shm_posix_5d7e1bce) failed: No such file or directory
[1725154089.481484] [cluster-256-hpc-256:42128:0]        mm_posix.c:291  UCX  ERROR shm_unlink(/ucx_shm_posix_14ea247b) failed: No such file or directory
[1725154089.481567] [cluster-256-hpc-256:42128:0]        mm_posix.c:291  UCX  ERROR shm_unlink(/ucx_shm_posix_781d7495) failed: No such file or directory
[1725154089.481470] [cluster-256-hpc-256:42248:0]        mm_posix.c:291  UCX  ERROR shm_unlink(/ucx_shm_posix_7a700465) failed: No such file or directory
[1725154089.481566] [cluster-256-hpc-256:42129:0]        mm_posix.c:291  UCX  ERROR shm_unlink(/ucx_shm_posix_53467972) failed: No such file or directory
[1725154089.481557] [cluster-256-hpc-256:42360:0]        mm_posix.c:291  UCX  ERROR shm_unlink(/ucx_shm_posix_5c31558c) failed: No such file or directory
[1725154089.481537] [cluster-256-hpc-256:42567:0]        mm_posix.c:291  UCX  ERROR shm_unlink(/ucx_shm_posix_a50d6fe) failed: No such file or directory
[1725154089.481615] [cluster-256-hpc-256:42567:0]        mm_posix.c:291  UCX  ERROR shm_unlink(/ucx_shm_posix_44668898) failed: No such file or directory
[1725154089.481672] [cluster-256-hpc-256:42685:0]        mm_posix.c:291  UCX  ERROR shm_unlink(/ucx_shm_posix_5097974e) failed: No such file or directory
[1725154089.481772] [cluster-256-hpc-256:42685:0]        mm_posix.c:291  UCX  ERROR shm_unlink(/ucx_shm_posix_f028861) failed: No such file or directory
[1725154089.481521] [cluster-256-hpc-256:42732:0]        mm_posix.c:291  UCX  ERROR shm_unlink(/ucx_shm_posix_2361a890) failed: No such file or directory
[1725154089.481658] [cluster-256-hpc-256:42732:0]        mm_posix.c:291  UCX  ERROR shm_unlink(/ucx_shm_posix_714618f4) failed: No such file or directory
[1725154089.481571] [cluster-256-hpc-256:42851:0]        mm_posix.c:291  UCX  ERROR shm_unlink(/ucx_shm_posix_2c8e71f5) failed: No such file or directory
[1725154089.481625] [cluster-256-hpc-256:42851:0]        mm_posix.c:291  UCX  ERROR shm_unlink(/ucx_shm_posix_33545d35) failed: No such file or directory
[1725154089.481599] [cluster-256-hpc-256:42882:0]        mm_posix.c:291  UCX  ERROR shm_unlink(/ucx_shm_posix_2bb1fb) failed: No such file or directory
[1725154089.481677] [cluster-256-hpc-256:42882:0]        mm_posix.c:291  UCX  ERROR shm_unlink(/ucx_shm_posix_2188cd81) failed: No such file or directory
[1725154089.481601] [cluster-256-hpc-256:42939:0]        mm_posix.c:291  UCX  ERROR shm_unlink(/ucx_shm_posix_1c5dd581) failed: No such file or directory
[1725154089.481681] [cluster-256-hpc-256:42939:0]        mm_posix.c:291  UCX  ERROR shm_unlink(/ucx_shm_posix_6efafc11) failed: No such file or directory
[1725154089.481645] [cluster-256-hpc-256:43013:0]        mm_posix.c:291  UCX  ERROR shm_unlink(/ucx_shm_posix_548a2a90) failed: No such file or directory
[1725154089.481714] [cluster-256-hpc-256:43013:0]        mm_posix.c:291  UCX  ERROR shm_unlink(/ucx_shm_posix_5a5581ce) failed: No such file or directory
[1725154089.481617] [cluster-256-hpc-256:43141:0]        mm_posix.c:291  UCX  ERROR shm_unlink(/ucx_shm_posix_25a1cbd8) failed: No such file or directory
[1725154089.481674] [cluster-256-hpc-256:43141:0]        mm_posix.c:291  UCX  ERROR shm_unlink(/ucx_shm_posix_55cd5d11) failed: No such file or directory
[1725154089.481714] [cluster-256-hpc-256:43324:0]        mm_posix.c:291  UCX  ERROR shm_unlink(/ucx_shm_posix_44f465f) failed: No such file or directory
[1725154089.481788] [cluster-256-hpc-256:43324:0]        mm_posix.c:291  UCX  ERROR shm_unlink(/ucx_shm_posix_5ea4a3c4) failed: No such file or directory
[1725154089.481603] [cluster-256-hpc-256:43683:0]        mm_posix.c:291  UCX  ERROR shm_unlink(/ucx_shm_posix_772b0e00) failed: No such file or directory
[1725154089.481692] [cluster-256-hpc-256:43683:0]        mm_posix.c:291  UCX  ERROR shm_unlink(/ucx_shm_posix_1f0dbce1) failed: No such file or directory
[1725154089.481696] [cluster-256-hpc-256:43614:0]        mm_posix.c:291  UCX  ERROR shm_unlink(/ucx_shm_posix_1040bd08) failed: No such file or directory
[1725154089.481754] [cluster-256-hpc-256:43614:0]        mm_posix.c:291  UCX  ERROR shm_unlink(/ucx_shm_posix_75da1dd9) failed: No such file or directory
[1725154089.481949] [cluster-256-hpc-256:42003:0]        mm_posix.c:291  UCX  ERROR shm_unlink(/ucx_shm_posix_5482f37f) failed: No such file or directory
[1725154089.482068] [cluster-256-hpc-256:42003:0]        mm_posix.c:291  UCX  ERROR shm_unlink(/ucx_shm_posix_7a953a18) failed: No such file or directory
[1725154089.482021] [cluster-256-hpc-256:41897:0]        mm_posix.c:291  UCX  ERROR shm_unlink(/ucx_shm_posix_3332feeb) failed: No such file or directory
[1725154089.481821] [cluster-256-hpc-256:42190:0]        mm_posix.c:291  UCX  ERROR shm_unlink(/ucx_shm_posix_6e7bc5dd) failed: No such file or directory
[1725154089.481900] [cluster-256-hpc-256:42252:0]        mm_posix.c:291  UCX  ERROR shm_unlink(/ucx_shm_posix_24a786e3) failed: No such file or directory
[1725154089.481959] [cluster-256-hpc-256:42252:0]        mm_posix.c:291  UCX  ERROR shm_unlink(/ucx_shm_posix_3ec288bd) failed: No such file or directory
[1725154089.481911] [cluster-256-hpc-256:42218:0]        mm_posix.c:291  UCX  ERROR shm_unlink(/ucx_shm_posix_4cb8e94e) failed: No such file or directory
[1725154089.481997] [cluster-256-hpc-256:42569:0]        mm_posix.c:291  UCX  ERROR shm_unlink(/ucx_shm_posix_510dac99) failed: No such file or directory
[1725154089.482092] [cluster-256-hpc-256:42569:0]        mm_posix.c:291  UCX  ERROR shm_unlink(/ucx_shm_posix_293bcfc3) failed: No such file or directory
[1725154089.481954] [cluster-256-hpc-256:43167:0]        mm_posix.c:291  UCX  ERROR shm_unlink(/ucx_shm_posix_7d0df2bc) failed: No such file or directory
[1725154089.482023] [cluster-256-hpc-256:43167:0]        mm_posix.c:291  UCX  ERROR shm_unlink(/ucx_shm_posix_77a10a7f) failed: No such file or directory
[1725154089.481988] [cluster-256-hpc-256:42791:0]        mm_posix.c:291  UCX  ERROR shm_unlink(/ucx_shm_posix_55c09c88) failed: No such file or directory
[1725154089.482107] [cluster-256-hpc-256:42791:0]        mm_posix.c:291  UCX  ERROR shm_unlink(/ucx_shm_posix_598cbd04) failed: No such file or directory
[1725154089.481865] [cluster-256-hpc-256:42819:0]        mm_posix.c:291  UCX  ERROR shm_unlink(/ucx_shm_posix_173399ad) failed: No such file or directory
[1725154089.481923] [cluster-256-hpc-256:42819:0]        mm_posix.c:291  UCX  ERROR shm_unlink(/ucx_shm_posix_11891479) failed: No such file or directory
[1725154089.481884] [cluster-256-hpc-256:42974:0]        mm_posix.c:291  UCX  ERROR shm_unlink(/ucx_shm_posix_7c906a7d) failed: No such file or directory
[1725154089.481972] [cluster-256-hpc-256:42974:0]        mm_posix.c:291  UCX  ERROR shm_unlink(/ucx_shm_posix_37374426) failed: No such file or directory
[1725154089.481908] [cluster-256-hpc-256:43044:0]        mm_posix.c:291  UCX  ERROR shm_unlink(/ucx_shm_posix_77c88f8d) failed: No such file or directory
[1725154089.481980] [cluster-256-hpc-256:43044:0]        mm_posix.c:291  UCX  ERROR shm_unlink(/ucx_shm_posix_127ed343) failed: No such file or directory
[1725154089.481805] [cluster-256-hpc-256:43103:0]        mm_posix.c:291  UCX  ERROR shm_unlink(/ucx_shm_posix_3c26d824) failed: No such file or directory
[1725154089.481880] [cluster-256-hpc-256:43103:0]        mm_posix.c:291  UCX  ERROR shm_unlink(/ucx_shm_posix_2f660c13) failed: No such file or directory
[1725154089.481962] [cluster-256-hpc-256:43222:0]        mm_posix.c:291  UCX  ERROR shm_unlink(/ucx_shm_posix_152c2327) failed: No such file or directory
[1725154089.482081] [cluster-256-hpc-256:43222:0]        mm_posix.c:291  UCX  ERROR shm_unlink(/ucx_shm_posix_47c81732) failed: No such file or directory
[1725154089.481803] [cluster-256-hpc-256:43288:0]        mm_posix.c:291  UCX  ERROR shm_unlink(/ucx_shm_posix_5cc3524f) failed: No such file or directory
[1725154089.481851] [cluster-256-hpc-256:43288:0]        mm_posix.c:291  UCX  ERROR shm_unlink(/ucx_shm_posix_5b36051d) failed: No such file or directory
[1725154089.482004] [cluster-256-hpc-256:43540:0]        mm_posix.c:291  UCX  ERROR shm_unlink(/ucx_shm_posix_3a1247f7) failed: No such file or directory
[1725154089.482109] [cluster-256-hpc-256:43540:0]        mm_posix.c:291  UCX  ERROR shm_unlink(/ucx_shm_posix_39b12471) failed: No such file or directory
[1725154089.481947] [cluster-256-hpc-256:43534:0]        mm_posix.c:291  UCX  ERROR shm_unlink(/ucx_shm_posix_1b773646) failed: No such file or directory
[1725154089.482074] [cluster-256-hpc-256:43534:0]        mm_posix.c:291  UCX  ERROR shm_unlink(/ucx_shm_posix_5368b88) failed: No such file or directory
[1725154089.481986] [cluster-256-hpc-256:43585:0]        mm_posix.c:291  UCX  ERROR shm_unlink(/ucx_shm_posix_51ccdd73) failed: No such file or directory
[1725154089.482087] [cluster-256-hpc-256:43585:0]        mm_posix.c:291  UCX  ERROR shm_unlink(/ucx_shm_posix_19c734a6) failed: No such file or directory
[1725154089.482002] [cluster-256-hpc-256:43719:0]        mm_posix.c:291  UCX  ERROR shm_unlink(/ucx_shm_posix_d4f128e) failed: No such file or directory
[1725154089.481868] [cluster-256-hpc-256:41635:0]        mm_posix.c:291  UCX  ERROR shm_unlink(/ucx_shm_posix_2c574a61) failed: No such file or directory
[1725154089.481941] [cluster-256-hpc-256:41635:0]        mm_posix.c:291  UCX  ERROR shm_unlink(/ucx_shm_posix_16974f25) failed: No such file or directory
[1725154089.481764] [cluster-256-hpc-256:41707:0]        mm_posix.c:291  UCX  ERROR shm_unlink(/ucx_shm_posix_2fc4f560) failed: No such file or directory
[1725154089.481842] [cluster-256-hpc-256:41646:0]        mm_posix.c:291  UCX  ERROR shm_unlink(/ucx_shm_posix_18ba7280) failed: No such file or directory
[1725154089.481990] [cluster-256-hpc-256:41646:0]        mm_posix.c:291  UCX  ERROR shm_unlink(/ucx_shm_posix_3ce090e2) failed: No such file or directory
[1725154089.482250] [cluster-256-hpc-256:43051:0]        mm_posix.c:291  UCX  ERROR shm_unlink(/ucx_shm_posix_6c7842cc) failed: No such file or directory
[1725154089.482313] [cluster-256-hpc-256:43051:0]        mm_posix.c:291  UCX  ERROR shm_unlink(/ucx_shm_posix_77198d07) failed: No such file or directory
[1725154089.482278] [cluster-256-hpc-256:42758:0]        mm_posix.c:291  UCX  ERROR shm_unlink(/ucx_shm_posix_54d3eedf) failed: No such file or directory
[1725154089.482345] [cluster-256-hpc-256:42758:0]        mm_posix.c:291  UCX  ERROR shm_unlink(/ucx_shm_posix_18d90d89) failed: No such file or directory
[1725154089.482250] [cluster-256-hpc-256:43254:0]        mm_posix.c:291  UCX  ERROR shm_unlink(/ucx_shm_posix_c5768f2) failed: No such file or directory
[1725154089.482307] [cluster-256-hpc-256:43254:0]        mm_posix.c:291  UCX  ERROR shm_unlink(/ucx_shm_posix_7de08ab5) failed: No such file or directory
[1725154089.482276] [cluster-256-hpc-256:43346:0]        mm_posix.c:291  UCX  ERROR shm_unlink(/ucx_shm_posix_73df2b0f) failed: No such file or directory
[1725154089.482325] [cluster-256-hpc-256:43346:0]        mm_posix.c:291  UCX  ERROR shm_unlink(/ucx_shm_posix_6bf1e000) failed: No such file or directory
[1725154089.482124] [cluster-256-hpc-256:43827:0]        mm_posix.c:291  UCX  ERROR shm_unlink(/ucx_shm_posix_12a64e59) failed: No such file or directory
[1725154089.482249] [cluster-256-hpc-256:41354:0]        mm_posix.c:291  UCX  ERROR shm_unlink(/ucx_shm_posix_73093bef) failed: No such file or directory
[1725154089.482335] [cluster-256-hpc-256:41354:0]        mm_posix.c:291  UCX  ERROR shm_unlink(/ucx_shm_posix_7b8c78eb) failed: No such file or directory
[1725154089.482181] [cluster-256-hpc-256:43856:0]        mm_posix.c:291  UCX  ERROR shm_unlink(/ucx_shm_posix_236ef49b) failed: No such file or directory
[1725154089.482254] [cluster-256-hpc-256:43856:0]        mm_posix.c:291  UCX  ERROR shm_unlink(/ucx_shm_posix_b403039) failed: No such file or directory
[1725154089.482019] [cluster-256-hpc-256:41350:0]        mm_posix.c:291  UCX  ERROR shm_unlink(/ucx_shm_posix_14b05ad3) failed: No such file or directory
[1725154089.482042] [cluster-256-hpc-256:42872:0]        mm_posix.c:291  UCX  ERROR shm_unlink(/ucx_shm_posix_4eaf48fb) failed: No such file or directory
[1725154089.482117] [cluster-256-hpc-256:42872:0]        mm_posix.c:291  UCX  ERROR shm_unlink(/ucx_shm_posix_295dcaf7) failed: No such file or directory
[1725154089.482263] [cluster-256-hpc-256:41347:0]        mm_posix.c:291  UCX  ERROR shm_unlink(/ucx_shm_posix_78af7487) failed: No such file or directory
[1725154089.482292] [cluster-256-hpc-256:41422:0]        mm_posix.c:291  UCX  ERROR shm_unlink(/ucx_shm_posix_95eaa41) failed: No such file or directory
[1725154089.482369] [cluster-256-hpc-256:41422:0]        mm_posix.c:291  UCX  ERROR shm_unlink(/ucx_shm_posix_56a26b23) failed: No such file or directory
[1725154089.482230] [cluster-256-hpc-256:41638:0]        mm_posix.c:291  UCX  ERROR shm_unlink(/ucx_shm_posix_138eb7fa) failed: No such file or directory
[1725154089.482081] [cluster-256-hpc-256:41783:0]        mm_posix.c:291  UCX  ERROR shm_unlink(/ucx_shm_posix_3554423e) failed: No such file or directory
[1725154089.482213] [cluster-256-hpc-256:41833:0]        mm_posix.c:291  UCX  ERROR shm_unlink(/ucx_shm_posix_3706bc09) failed: No such file or directory
[1725154089.482278] [cluster-256-hpc-256:41833:0]        mm_posix.c:291  UCX  ERROR shm_unlink(/ucx_shm_posix_681dbb06) failed: No such file or directory
[1725154089.482250] [cluster-256-hpc-256:41745:0]        mm_posix.c:291  UCX  ERROR shm_unlink(/ucx_shm_posix_2500cf95) failed: No such file or directory
[1725154089.482276] [cluster-256-hpc-256:42276:0]        mm_posix.c:291  UCX  ERROR shm_unlink(/ucx_shm_posix_42f47a79) failed: No such file or directory
[1725154089.482151] [cluster-256-hpc-256:42127:0]        mm_posix.c:291  UCX  ERROR shm_unlink(/ucx_shm_posix_785b439) failed: No such file or directory
[1725154089.482215] [cluster-256-hpc-256:42127:0]        mm_posix.c:291  UCX  ERROR shm_unlink(/ucx_shm_posix_593e3c07) failed: No such file or directory
[1725154089.482105] [cluster-256-hpc-256:42400:0]        mm_posix.c:291  UCX  ERROR shm_unlink(/ucx_shm_posix_1dd6a3a1) failed: No such file or directory
[1725154089.482177] [cluster-256-hpc-256:42400:0]        mm_posix.c:291  UCX  ERROR shm_unlink(/ucx_shm_posix_47a2b389) failed: No such file or directory
[1725154089.482192] [cluster-256-hpc-256:42466:0]        mm_posix.c:291  UCX  ERROR shm_unlink(/ucx_shm_posix_20f694d) failed: No such file or directory
[1725154089.482098] [cluster-256-hpc-256:42497:0]        mm_posix.c:291  UCX  ERROR shm_unlink(/ucx_shm_posix_769bb6e0) failed: No such file or directory
[1725154089.482164] [cluster-256-hpc-256:42497:0]        mm_posix.c:291  UCX  ERROR shm_unlink(/ucx_shm_posix_3a06f10b) failed: No such file or directory
[1725154089.482506] [cluster-256-hpc-256:41777:0]        mm_posix.c:291  UCX  ERROR shm_unlink(/ucx_shm_posix_2e04a32e) failed: No such file or directory
[1725154089.482614] [cluster-256-hpc-256:41777:0]        mm_posix.c:291  UCX  ERROR shm_unlink(/ucx_shm_posix_b1ff8e3) failed: No such file or directory
[1725154089.482366] [cluster-256-hpc-256:41736:0]        mm_posix.c:291  UCX  ERROR shm_unlink(/ucx_shm_posix_77a03e) failed: No such file or directory
[1725154089.482504] [cluster-256-hpc-256:41421:0]        mm_posix.c:291  UCX  ERROR shm_unlink(/ucx_shm_posix_124ea03c) failed: No such file or directory
[1725154089.482579] [cluster-256-hpc-256:41421:0]        mm_posix.c:291  UCX  ERROR shm_unlink(/ucx_shm_posix_4c0b2d40) failed: No such file or directory
[1725154089.482391] [cluster-256-hpc-256:43737:0]        mm_posix.c:291  UCX  ERROR shm_unlink(/ucx_shm_posix_5a8b1a7d) failed: No such file or directory
[1725154089.482739] [cluster-256-hpc-256:41953:0]        mm_posix.c:291  UCX  ERROR shm_unlink(/ucx_shm_posix_4d10a786) failed: No such file or directory
[1725154089.482717] [cluster-256-hpc-256:42248:0]        mm_posix.c:291  UCX  ERROR shm_unlink(/ucx_shm_posix_5464faaa) failed: No such file or directory
[1725154089.482774] [cluster-256-hpc-256:42248:0]        mm_posix.c:291  UCX  ERROR shm_unlink(/ucx_shm_posix_3ad0e404) failed: No such file or directory
[1725154089.482772] [cluster-256-hpc-256:41643:0]        mm_posix.c:291  UCX  ERROR shm_unlink(/ucx_shm_posix_631ccbf3) failed: No such file or directory
[1725154089.482823] [cluster-256-hpc-256:41643:0]        mm_posix.c:291  UCX  ERROR shm_unlink(/ucx_shm_posix_47dbd81e) failed: No such file or directory
[1725154089.482800] [cluster-256-hpc-256:41953:0]        mm_posix.c:291  UCX  ERROR shm_unlink(/ucx_shm_posix_511d8beb) failed: No such file or directory
[1725154089.482957] [cluster-256-hpc-256:42190:0]        mm_posix.c:291  UCX  ERROR shm_unlink(/ucx_shm_posix_73770675) failed: No such file or directory
[1725154089.482932] [cluster-256-hpc-256:41707:0]        mm_posix.c:291  UCX  ERROR shm_unlink(/ucx_shm_posix_7684afab) failed: No such file or directory
[1725154089.482977] [cluster-256-hpc-256:41707:0]        mm_posix.c:291  UCX  ERROR shm_unlink(/ucx_shm_posix_21c58d4a) failed: No such file or directory
[1725154089.483009] [cluster-256-hpc-256:42190:0]        mm_posix.c:291  UCX  ERROR shm_unlink(/ucx_shm_posix_17851d5f) failed: No such file or directory
[1725154089.483065] [cluster-256-hpc-256:42218:0]        mm_posix.c:291  UCX  ERROR shm_unlink(/ucx_shm_posix_2930c295) failed: No such file or directory
[1725154089.483120] [cluster-256-hpc-256:42218:0]        mm_posix.c:291  UCX  ERROR shm_unlink(/ucx_shm_posix_232d18ca) failed: No such file or directory
[1725154089.483135] [cluster-256-hpc-256:43827:0]        mm_posix.c:291  UCX  ERROR shm_unlink(/ucx_shm_posix_622e9117) failed: No such file or directory
[1725154089.483183] [cluster-256-hpc-256:43827:0]        mm_posix.c:291  UCX  ERROR shm_unlink(/ucx_shm_posix_e3e7ff9) failed: No such file or directory
[1725154089.483181] [cluster-256-hpc-256:41350:0]        mm_posix.c:291  UCX  ERROR shm_unlink(/ucx_shm_posix_3b5a21d9) failed: No such file or directory
[1725154089.483236] [cluster-256-hpc-256:41350:0]        mm_posix.c:291  UCX  ERROR shm_unlink(/ucx_shm_posix_64b8143e) failed: No such file or directory
[1725154089.483103] [cluster-256-hpc-256:43719:0]        mm_posix.c:291  UCX  ERROR shm_unlink(/ucx_shm_posix_2f63dbda) failed: No such file or directory
[1725154089.483151] [cluster-256-hpc-256:43719:0]        mm_posix.c:291  UCX  ERROR shm_unlink(/ucx_shm_posix_59d4265d) failed: No such file or directory
[1725154089.483118] [cluster-256-hpc-256:41897:0]        mm_posix.c:291  UCX  ERROR shm_unlink(/ucx_shm_posix_290ce39d) failed: No such file or directory
[1725154089.483187] [cluster-256-hpc-256:41897:0]        mm_posix.c:291  UCX  ERROR shm_unlink(/ucx_shm_posix_136e7e0d) failed: No such file or directory
[1725154089.483268] [cluster-256-hpc-256:41638:0]        mm_posix.c:291  UCX  ERROR shm_unlink(/ucx_shm_posix_641a8f35) failed: No such file or directory
[1725154089.483341] [cluster-256-hpc-256:41638:0]        mm_posix.c:291  UCX  ERROR shm_unlink(/ucx_shm_posix_7ef8da63) failed: No such file or directory
[1725154089.483220] [cluster-256-hpc-256:41783:0]        mm_posix.c:291  UCX  ERROR shm_unlink(/ucx_shm_posix_1c1d53db) failed: No such file or directory
[1725154089.483287] [cluster-256-hpc-256:41783:0]        mm_posix.c:291  UCX  ERROR shm_unlink(/ucx_shm_posix_16919922) failed: No such file or directory
[1725154089.483298] [cluster-256-hpc-256:41745:0]        mm_posix.c:291  UCX  ERROR shm_unlink(/ucx_shm_posix_17f5a7ed) failed: No such file or directory
[1725154089.483369] [cluster-256-hpc-256:41745:0]        mm_posix.c:291  UCX  ERROR shm_unlink(/ucx_shm_posix_3b3e6f1d) failed: No such file or directory
[1725154089.483255] [cluster-256-hpc-256:42276:0]        mm_posix.c:291  UCX  ERROR shm_unlink(/ucx_shm_posix_5bd84856) failed: No such file or directory
[1725154089.483328] [cluster-256-hpc-256:42276:0]        mm_posix.c:291  UCX  ERROR shm_unlink(/ucx_shm_posix_6b2301b5) failed: No such file or directory
[1725154089.483269] [cluster-256-hpc-256:42466:0]        mm_posix.c:291  UCX  ERROR shm_unlink(/ucx_shm_posix_1887e93d) failed: No such file or directory
[1725154089.483330] [cluster-256-hpc-256:42466:0]        mm_posix.c:291  UCX  ERROR shm_unlink(/ucx_shm_posix_7836b050) failed: No such file or directory
[1725154089.483396] [cluster-256-hpc-256:41347:0]        mm_posix.c:291  UCX  ERROR shm_unlink(/ucx_shm_posix_26d197c9) failed: No such file or directory
[1725154089.483446] [cluster-256-hpc-256:41347:0]        mm_posix.c:291  UCX  ERROR shm_unlink(/ucx_shm_posix_12e94465) failed: No such file or directory
[1725154089.483443] [cluster-256-hpc-256:41736:0]        mm_posix.c:291  UCX  ERROR shm_unlink(/ucx_shm_posix_cd5acaa) failed: No such file or directory
[1725154089.483487] [cluster-256-hpc-256:41736:0]        mm_posix.c:291  UCX  ERROR shm_unlink(/ucx_shm_posix_1d07ef7e) failed: No such file or directory
[1725154089.483461] [cluster-256-hpc-256:43737:0]        mm_posix.c:291  UCX  ERROR shm_unlink(/ucx_shm_posix_1ea22ed) failed: No such file or directory
[1725154089.483519] [cluster-256-hpc-256:43737:0]        mm_posix.c:291  UCX  ERROR shm_unlink(/ucx_shm_posix_5c17f166) failed: No such file or directory
[1725154089.526796] [cluster-256-hpc-256:43768:0]        mm_posix.c:291  UCX  ERROR shm_unlink(/ucx_shm_posix_68f5e24f) failed: No such file or directory
[1725154089.526850] [cluster-256-hpc-256:43768:0]        mm_posix.c:291  UCX  ERROR shm_unlink(/ucx_shm_posix_68af5522) failed: No such file or directory
[1725154089.528005] [cluster-256-hpc-256:41954:0]        mm_posix.c:291  UCX  ERROR shm_unlink(/ucx_shm_posix_6bc4ef5b) failed: No such file or directory
[1725154089.528062] [cluster-256-hpc-256:41954:0]        mm_posix.c:291  UCX  ERROR shm_unlink(/ucx_shm_posix_5134dadf) failed: No such file or directory
[1725154089.529910] [cluster-256-hpc-256:41385:0]        mm_posix.c:291  UCX  ERROR shm_unlink(/ucx_shm_posix_71653cd8) failed: No such file or directory
[1725154089.529957] [cluster-256-hpc-256:41385:0]        mm_posix.c:291  UCX  ERROR shm_unlink(/ucx_shm_posix_5cd34532) failed: No such file or directory
[1725154089.530273] [cluster-256-hpc-256:42625:0]        mm_posix.c:291  UCX  ERROR shm_unlink(/ucx_shm_posix_75553858) failed: No such file or directory
[1725154089.530324] [cluster-256-hpc-256:42625:0]        mm_posix.c:291  UCX  ERROR shm_unlink(/ucx_shm_posix_76526bc4) failed: No such file or directory
[1725154089.530841] [cluster-256-hpc-256:41805:0]        mm_posix.c:291  UCX  ERROR shm_unlink(/ucx_shm_posix_e5552a2) failed: No such file or directory
[1725154089.530887] [cluster-256-hpc-256:41805:0]        mm_posix.c:291  UCX  ERROR shm_unlink(/ucx_shm_posix_6539d2ff) failed: No such file or directory
[1725154089.532479] [cluster-256-hpc-256:43137:0]        mm_posix.c:291  UCX  ERROR shm_unlink(/ucx_shm_posix_60eed5c5) failed: No such file or directory
[1725154089.532531] [cluster-256-hpc-256:43137:0]        mm_posix.c:291  UCX  ERROR shm_unlink(/ucx_shm_posix_58ed5293) failed: No such file or directory
[1725154089.532671] [cluster-256-hpc-256:43651:0]        mm_posix.c:291  UCX  ERROR shm_unlink(/ucx_shm_posix_38fe26aa) failed: No such file or directory
[1725154089.532740] [cluster-256-hpc-256:43651:0]        mm_posix.c:291  UCX  ERROR shm_unlink(/ucx_shm_posix_445504dc) failed: No such file or directory
[1725154089.533136] [cluster-256-hpc-256:41423:0]        mm_posix.c:291  UCX  ERROR shm_unlink(/ucx_shm_posix_705182b8) failed: No such file or directory
[1725154089.533207] [cluster-256-hpc-256:41423:0]        mm_posix.c:291  UCX  ERROR shm_unlink(/ucx_shm_posix_312ee8f2) failed: No such file or directory
[1725154089.533288] [cluster-256-hpc-256:42461:0]        mm_posix.c:291  UCX  ERROR shm_unlink(/ucx_shm_posix_7a3f17ed) failed: No such file or directory
[1725154089.533343] [cluster-256-hpc-256:42461:0]        mm_posix.c:291  UCX  ERROR shm_unlink(/ucx_shm_posix_4a0d4d6d) failed: No such file or directory
[1725154089.537601] [cluster-256-hpc-256:42019:0]        mm_posix.c:291  UCX  ERROR shm_unlink(/ucx_shm_posix_60389ac1) failed: No such file or directory
[1725154089.537671] [cluster-256-hpc-256:42019:0]        mm_posix.c:291  UCX  ERROR shm_unlink(/ucx_shm_posix_5dfbd391) failed: No such file or directory
[1725154089.537638] [cluster-256-hpc-256:41457:0]        mm_posix.c:291  UCX  ERROR shm_unlink(/ucx_shm_posix_623217da) failed: No such file or directory
[1725154089.537705] [cluster-256-hpc-256:41457:0]        mm_posix.c:291  UCX  ERROR shm_unlink(/ucx_shm_posix_48276b7e) failed: No such file or directory
[1725154089.537849] [cluster-256-hpc-256:43317:0]        mm_posix.c:291  UCX  ERROR shm_unlink(/ucx_shm_posix_5f2992) failed: No such file or directory
[1725154089.537956] [cluster-256-hpc-256:43317:0]        mm_posix.c:291  UCX  ERROR shm_unlink(/ucx_shm_posix_2408dc82) failed: No such file or directory
[1725154089.538056] [cluster-256-hpc-256:43286:0]        mm_posix.c:291  UCX  ERROR shm_unlink(/ucx_shm_posix_74582de6) failed: No such file or directory
[1725154089.538128] [cluster-256-hpc-256:43685:0]        mm_posix.c:291  UCX  ERROR shm_unlink(/ucx_shm_posix_dd193b4) failed: No such file or directory
[1725154089.538160] [cluster-256-hpc-256:43805:0]        mm_posix.c:291  UCX  ERROR shm_unlink(/ucx_shm_posix_5da37035) failed: No such file or directory
[1725154089.538136] [cluster-256-hpc-256:43286:0]        mm_posix.c:291  UCX  ERROR shm_unlink(/ucx_shm_posix_6cfae54f) failed: No such file or directory
[1725154089.538122] [cluster-256-hpc-256:42517:0]        mm_posix.c:291  UCX  ERROR shm_unlink(/ucx_shm_posix_3a599d2f) failed: No such file or directory
[1725154089.538196] [cluster-256-hpc-256:42517:0]        mm_posix.c:291  UCX  ERROR shm_unlink(/ucx_shm_posix_1f3d1541) failed: No such file or directory
[1725154089.538212] [cluster-256-hpc-256:43805:0]        mm_posix.c:291  UCX  ERROR shm_unlink(/ucx_shm_posix_3d84588d) failed: No such file or directory
[1725154089.538187] [cluster-256-hpc-256:42663:0]        mm_posix.c:291  UCX  ERROR shm_unlink(/ucx_shm_posix_2d983a8) failed: No such file or directory
[1725154089.538187] [cluster-256-hpc-256:43685:0]        mm_posix.c:291  UCX  ERROR shm_unlink(/ucx_shm_posix_5b5e38de) failed: No such file or directory
[1725154089.538279] [cluster-256-hpc-256:42663:0]        mm_posix.c:291  UCX  ERROR shm_unlink(/ucx_shm_posix_1ab815dd) failed: No such file or directory
[1725154089.538468] [cluster-256-hpc-256:43202:0]        mm_posix.c:291  UCX  ERROR shm_unlink(/ucx_shm_posix_2b8fc5e6) failed: No such file or directory
[1725154089.538445] [cluster-256-hpc-256:42660:0]        mm_posix.c:291  UCX  ERROR shm_unlink(/ucx_shm_posix_2766abb8) failed: No such file or directory
[1725154089.538502] [cluster-256-hpc-256:42660:0]        mm_posix.c:291  UCX  ERROR shm_unlink(/ucx_shm_posix_324c5dda) failed: No such file or directory
[1725154089.538552] [cluster-256-hpc-256:42409:0]        mm_posix.c:291  UCX  ERROR shm_unlink(/ucx_shm_posix_7fc2fd6d) failed: No such file or directory
[1725154089.538555] [cluster-256-hpc-256:43202:0]        mm_posix.c:291  UCX  ERROR shm_unlink(/ucx_shm_posix_541c0891) failed: No such file or directory
[1725154089.538631] [cluster-256-hpc-256:42409:0]        mm_posix.c:291  UCX  ERROR shm_unlink(/ucx_shm_posix_3a53ece3) failed: No such file or directory
[1725154089.538684] [cluster-256-hpc-256:42129:0]        mm_posix.c:291  UCX  ERROR shm_unlink(/ucx_shm_posix_4108f6e9) failed: No such file or directory
[1725154089.538739] [cluster-256-hpc-256:42129:0]        mm_posix.c:291  UCX  ERROR shm_unlink(/ucx_shm_posix_98e8ff8) failed: No such file or directory
[1725154089.538889] [cluster-256-hpc-256:43013:0]        mm_posix.c:291  UCX  ERROR shm_unlink(/ucx_shm_posix_3c95275b) failed: No such file or directory
[1725154089.538915] [cluster-256-hpc-256:43514:0]        mm_posix.c:291  UCX  ERROR shm_unlink(/ucx_shm_posix_3fb208fb) failed: No such file or directory
[1725154089.538942] [cluster-256-hpc-256:43013:0]        mm_posix.c:291  UCX  ERROR shm_unlink(/ucx_shm_posix_9a12102) failed: No such file or directory
[1725154089.538992] [cluster-256-hpc-256:43514:0]        mm_posix.c:291  UCX  ERROR shm_unlink(/ucx_shm_posix_5f58d206) failed: No such file or directory
[1725154089.539123] [cluster-256-hpc-256:42791:0]        mm_posix.c:291  UCX  ERROR shm_unlink(/ucx_shm_posix_78fdaa4e) failed: No such file or directory
[1725154089.539171] [cluster-256-hpc-256:42791:0]        mm_posix.c:291  UCX  ERROR shm_unlink(/ucx_shm_posix_13dbf57c) failed: No such file or directory
[1725154089.539137] [cluster-256-hpc-256:42938:0]        mm_posix.c:291  UCX  ERROR shm_unlink(/ucx_shm_posix_2d51468) failed: No such file or directory
[1725154089.539216] [cluster-256-hpc-256:42938:0]        mm_posix.c:291  UCX  ERROR shm_unlink(/ucx_shm_posix_40f0feb2) failed: No such file or directory
[1725154089.539256] [cluster-256-hpc-256:42569:0]        mm_posix.c:291  UCX  ERROR shm_unlink(/ucx_shm_posix_7c3d0e60) failed: No such file or directory
[1725154089.539314] [cluster-256-hpc-256:42569:0]        mm_posix.c:291  UCX  ERROR shm_unlink(/ucx_shm_posix_576f8ea8) failed: No such file or directory
[1725154089.539371] [cluster-256-hpc-256:43808:0]        mm_posix.c:291  UCX  ERROR shm_unlink(/ucx_shm_posix_3cf1699f) failed: No such file or directory
[1725154089.539447] [cluster-256-hpc-256:42003:0]        mm_posix.c:291  UCX  ERROR shm_unlink(/ucx_shm_posix_137d8c58) failed: No such file or directory
[1725154089.539508] [cluster-256-hpc-256:42003:0]        mm_posix.c:291  UCX  ERROR shm_unlink(/ucx_shm_posix_2582095d) failed: No such file or directory
[1725154089.539481] [cluster-256-hpc-256:43350:0]        mm_posix.c:291  UCX  ERROR shm_unlink(/ucx_shm_posix_3e11420e) failed: No such file or directory
[1725154089.539474] [cluster-256-hpc-256:43794:0]        mm_posix.c:291  UCX  ERROR shm_unlink(/ucx_shm_posix_3906c3e4) failed: No such file or directory
[1725154089.539440] [cluster-256-hpc-256:43808:0]        mm_posix.c:291  UCX  ERROR shm_unlink(/ucx_shm_posix_210f8df8) failed: No such file or directory
[1725154089.539546] [cluster-256-hpc-256:42974:0]        mm_posix.c:291  UCX  ERROR shm_unlink(/ucx_shm_posix_20114a50) failed: No such file or directory
[1725154089.539547] [cluster-256-hpc-256:43350:0]        mm_posix.c:291  UCX  ERROR shm_unlink(/ucx_shm_posix_1b71c794) failed: No such file or directory
[1725154089.539549] [cluster-256-hpc-256:43794:0]        mm_posix.c:291  UCX  ERROR shm_unlink(/ucx_shm_posix_2d87fb3b) failed: No such file or directory
[1725154089.539600] [cluster-256-hpc-256:42732:0]        mm_posix.c:291  UCX  ERROR shm_unlink(/ucx_shm_posix_6890c472) failed: No such file or directory
[1725154089.539663] [cluster-256-hpc-256:42732:0]        mm_posix.c:291  UCX  ERROR shm_unlink(/ucx_shm_posix_d7c7ecb) failed: No such file or directory
[1725154089.539600] [cluster-256-hpc-256:42974:0]        mm_posix.c:291  UCX  ERROR shm_unlink(/ucx_shm_posix_2fc436fe) failed: No such file or directory
[1725154089.539754] [cluster-256-hpc-256:43241:0]        mm_posix.c:291  UCX  ERROR shm_unlink(/ucx_shm_posix_100eb54a) failed: No such file or directory
[1725154089.539828] [cluster-256-hpc-256:43241:0]        mm_posix.c:291  UCX  ERROR shm_unlink(/ucx_shm_posix_6ee48d14) failed: No such file or directory
[1725154089.539842] [cluster-256-hpc-256:43614:0]        mm_posix.c:291  UCX  ERROR shm_unlink(/ucx_shm_posix_60cd8d89) failed: No such file or directory
[1725154089.539898] [cluster-256-hpc-256:43614:0]        mm_posix.c:291  UCX  ERROR shm_unlink(/ucx_shm_posix_b6243f4) failed: No such file or directory
[1725154089.539785] [cluster-256-hpc-256:42050:0]        mm_posix.c:291  UCX  ERROR shm_unlink(/ucx_shm_posix_d01dbf0) failed: No such file or directory
[1725154089.539850] [cluster-256-hpc-256:42050:0]        mm_posix.c:291  UCX  ERROR shm_unlink(/ucx_shm_posix_1339a28e) failed: No such file or directory
[1725154089.539803] [cluster-256-hpc-256:42128:0]        mm_posix.c:291  UCX  ERROR shm_unlink(/ucx_shm_posix_6afe5883) failed: No such file or directory
[1725154089.539872] [cluster-256-hpc-256:42128:0]        mm_posix.c:291  UCX  ERROR shm_unlink(/ucx_shm_posix_5c4fb70b) failed: No such file or directory
[1725154089.539826] [cluster-256-hpc-256:42394:0]        mm_posix.c:291  UCX  ERROR shm_unlink(/ucx_shm_posix_3afe35f) failed: No such file or directory
[1725154089.539902] [cluster-256-hpc-256:42394:0]        mm_posix.c:291  UCX  ERROR shm_unlink(/ucx_shm_posix_8373dc8) failed: No such file or directory
[1725154089.539872] [cluster-256-hpc-256:41891:0]        mm_posix.c:291  UCX  ERROR shm_unlink(/ucx_shm_posix_5fb0c703) failed: No such file or directory
[1725154089.539951] [cluster-256-hpc-256:41891:0]        mm_posix.c:291  UCX  ERROR shm_unlink(/ucx_shm_posix_1ec6b9b4) failed: No such file or directory
[1725154089.539945] [cluster-256-hpc-256:43103:0]        mm_posix.c:291  UCX  ERROR shm_unlink(/ucx_shm_posix_4dac645b) failed: No such file or directory
[1725154089.540043] [cluster-256-hpc-256:43549:0]        mm_posix.c:291  UCX  ERROR shm_unlink(/ucx_shm_posix_1c9994ee) failed: No such file or directory
[1725154089.540017] [cluster-256-hpc-256:43103:0]        mm_posix.c:291  UCX  ERROR shm_unlink(/ucx_shm_posix_7e64d11a) failed: No such file or directory
[1725154089.540025] [cluster-256-hpc-256:43868:0]        mm_posix.c:291  UCX  ERROR shm_unlink(/ucx_shm_posix_668b6192) failed: No such file or directory
[1725154089.540086] [cluster-256-hpc-256:43868:0]        mm_posix.c:291  UCX  ERROR shm_unlink(/ucx_shm_posix_4098f7bc) failed: No such file or directory
[1725154089.540146] [cluster-256-hpc-256:43141:0]        mm_posix.c:291  UCX  ERROR shm_unlink(/ucx_shm_posix_2602ca79) failed: No such file or directory
[1725154089.540085] [cluster-256-hpc-256:43288:0]        mm_posix.c:291  UCX  ERROR shm_unlink(/ucx_shm_posix_38b84fd4) failed: No such file or directory
[1725154089.540153] [cluster-256-hpc-256:43288:0]        mm_posix.c:291  UCX  ERROR shm_unlink(/ucx_shm_posix_49e9c3c2) failed: No such file or directory
[1725154089.540109] [cluster-256-hpc-256:43549:0]        mm_posix.c:291  UCX  ERROR shm_unlink(/ucx_shm_posix_1dce5345) failed: No such file or directory
[1725154089.540152] [cluster-256-hpc-256:43346:0]        mm_posix.c:291  UCX  ERROR shm_unlink(/ucx_shm_posix_da80ab5) failed: No such file or directory
[1725154089.540081] [cluster-256-hpc-256:42252:0]        mm_posix.c:291  UCX  ERROR shm_unlink(/ucx_shm_posix_32ce066) failed: No such file or directory
[1725154089.540147] [cluster-256-hpc-256:42252:0]        mm_posix.c:291  UCX  ERROR shm_unlink(/ucx_shm_posix_67130147) failed: No such file or directory
[1725154089.540093] [cluster-256-hpc-256:42567:0]        mm_posix.c:291  UCX  ERROR shm_unlink(/ucx_shm_posix_59d30f52) failed: No such file or directory
[1725154089.540141] [cluster-256-hpc-256:42567:0]        mm_posix.c:291  UCX  ERROR shm_unlink(/ucx_shm_posix_502b75f4) failed: No such file or directory
[1725154089.540226] [cluster-256-hpc-256:43051:0]        mm_posix.c:291  UCX  ERROR shm_unlink(/ucx_shm_posix_45faa1cc) failed: No such file or directory
[1725154089.540279] [cluster-256-hpc-256:43051:0]        mm_posix.c:291  UCX  ERROR shm_unlink(/ucx_shm_posix_1fd0ad0a) failed: No such file or directory
[1725154089.540253] [cluster-256-hpc-256:43222:0]        mm_posix.c:291  UCX  ERROR shm_unlink(/ucx_shm_posix_20f5cb95) failed: No such file or directory
[1725154089.540307] [cluster-256-hpc-256:43222:0]        mm_posix.c:291  UCX  ERROR shm_unlink(/ucx_shm_posix_3eb7aff7) failed: No such file or directory
[1725154089.540209] [cluster-256-hpc-256:43141:0]        mm_posix.c:291  UCX  ERROR shm_unlink(/ucx_shm_posix_87411a2) failed: No such file or directory
[1725154089.540205] [cluster-256-hpc-256:43346:0]        mm_posix.c:291  UCX  ERROR shm_unlink(/ucx_shm_posix_1a3f92f3) failed: No such file or directory
[1725154089.540261] [cluster-256-hpc-256:42851:0]        mm_posix.c:291  UCX  ERROR shm_unlink(/ucx_shm_posix_940b24b) failed: No such file or directory
[1725154089.540324] [cluster-256-hpc-256:42851:0]        mm_posix.c:291  UCX  ERROR shm_unlink(/ucx_shm_posix_bfb3b73) failed: No such file or directory
[1725154089.540358] [cluster-256-hpc-256:42819:0]        mm_posix.c:291  UCX  ERROR shm_unlink(/ucx_shm_posix_3356897b) failed: No such file or directory
[1725154089.540300] [cluster-256-hpc-256:43254:0]        mm_posix.c:291  UCX  ERROR shm_unlink(/ucx_shm_posix_74acab87) failed: No such file or directory
[1725154089.540350] [cluster-256-hpc-256:43254:0]        mm_posix.c:291  UCX  ERROR shm_unlink(/ucx_shm_posix_4a8d05b0) failed: No such file or directory
[1725154089.540417] [cluster-256-hpc-256:42819:0]        mm_posix.c:291  UCX  ERROR shm_unlink(/ucx_shm_posix_2497e002) failed: No such file or directory
[1725154089.540606] [cluster-256-hpc-256:42872:0]        mm_posix.c:291  UCX  ERROR shm_unlink(/ucx_shm_posix_5359400) failed: No such file or directory
[1725154089.540676] [cluster-256-hpc-256:42872:0]        mm_posix.c:291  UCX  ERROR shm_unlink(/ucx_shm_posix_2a401cd4) failed: No such file or directory
[1725154089.540587] [cluster-256-hpc-256:41635:0]        mm_posix.c:291  UCX  ERROR shm_unlink(/ucx_shm_posix_783791d2) failed: No such file or directory
[1725154089.540641] [cluster-256-hpc-256:41635:0]        mm_posix.c:291  UCX  ERROR shm_unlink(/ucx_shm_posix_5fafe916) failed: No such file or directory
[1725154089.540995] [cluster-256-hpc-256:41345:0]        mm_posix.c:291  UCX  ERROR shm_unlink(/ucx_shm_posix_3208660f) failed: No such file or directory
[1725154089.541060] [cluster-256-hpc-256:41345:0]        mm_posix.c:291  UCX  ERROR shm_unlink(/ucx_shm_posix_2a2134f9) failed: No such file or directory
[1725154089.541032] [cluster-256-hpc-256:43167:0]        mm_posix.c:291  UCX  ERROR shm_unlink(/ucx_shm_posix_2d0c31fb) failed: No such file or directory
[1725154089.541063] [cluster-256-hpc-256:43534:0]        mm_posix.c:291  UCX  ERROR shm_unlink(/ucx_shm_posix_365c51d4) failed: No such file or directory
[1725154089.541090] [cluster-256-hpc-256:43167:0]        mm_posix.c:291  UCX  ERROR shm_unlink(/ucx_shm_posix_7dc93481) failed: No such file or directory
[1725154089.541128] [cluster-256-hpc-256:43534:0]        mm_posix.c:291  UCX  ERROR shm_unlink(/ucx_shm_posix_3e3eaeff) failed: No such file or directory
[1725154089.541097] [cluster-256-hpc-256:42400:0]        mm_posix.c:291  UCX  ERROR shm_unlink(/ucx_shm_posix_286e0252) failed: No such file or directory
[1725154089.541144] [cluster-256-hpc-256:42400:0]        mm_posix.c:291  UCX  ERROR shm_unlink(/ucx_shm_posix_3236d5d0) failed: No such file or directory
[1725154089.541365] [cluster-256-hpc-256:43683:0]        mm_posix.c:291  UCX  ERROR shm_unlink(/ucx_shm_posix_6d0419f) failed: No such file or directory
[1725154089.541428] [cluster-256-hpc-256:43683:0]        mm_posix.c:291  UCX  ERROR shm_unlink(/ucx_shm_posix_74f637b7) failed: No such file or directory
[1725154089.541489] [cluster-256-hpc-256:42127:0]        mm_posix.c:291  UCX  ERROR shm_unlink(/ucx_shm_posix_6a96f823) failed: No such file or directory
[1725154089.541522] [cluster-256-hpc-256:41646:0]        mm_posix.c:291  UCX  ERROR shm_unlink(/ucx_shm_posix_1fab093d) failed: No such file or directory
[1725154089.541549] [cluster-256-hpc-256:42127:0]        mm_posix.c:291  UCX  ERROR shm_unlink(/ucx_shm_posix_3064a774) failed: No such file or directory
[1725154089.541577] [cluster-256-hpc-256:41646:0]        mm_posix.c:291  UCX  ERROR shm_unlink(/ucx_shm_posix_5772794a) failed: No such file or directory
[1725154089.541680] [cluster-256-hpc-256:43044:0]        mm_posix.c:291  UCX  ERROR shm_unlink(/ucx_shm_posix_1dac59b8) failed: No such file or directory
[1725154089.541752] [cluster-256-hpc-256:43044:0]        mm_posix.c:291  UCX  ERROR shm_unlink(/ucx_shm_posix_54479818) failed: No such file or directory
[1725154089.541875] [cluster-256-hpc-256:42497:0]        mm_posix.c:291  UCX  ERROR shm_unlink(/ucx_shm_posix_276669c7) failed: No such file or directory
[1725154089.541934] [cluster-256-hpc-256:42497:0]        mm_posix.c:291  UCX  ERROR shm_unlink(/ucx_shm_posix_2c768318) failed: No such file or directory
[1725154089.541966] [cluster-256-hpc-256:43585:0]        mm_posix.c:291  UCX  ERROR shm_unlink(/ucx_shm_posix_79ccf5e4) failed: No such file or directory
[1725154089.542019] [cluster-256-hpc-256:43585:0]        mm_posix.c:291  UCX  ERROR shm_unlink(/ucx_shm_posix_24c88243) failed: No such file or directory
[1725154089.542279] [cluster-256-hpc-256:41354:0]        mm_posix.c:291  UCX  ERROR shm_unlink(/ucx_shm_posix_728a9ef0) failed: No such file or directory
[1725154089.542337] [cluster-256-hpc-256:41354:0]        mm_posix.c:291  UCX  ERROR shm_unlink(/ucx_shm_posix_4b96e10) failed: No such file or directory
[1725154089.542447] [cluster-256-hpc-256:42758:0]        mm_posix.c:291  UCX  ERROR shm_unlink(/ucx_shm_posix_2d65bdd9) failed: No such file or directory
[1725154089.542500] [cluster-256-hpc-256:42758:0]        mm_posix.c:291  UCX  ERROR shm_unlink(/ucx_shm_posix_135b8e0a) failed: No such file or directory
[1725154089.542473] [cluster-256-hpc-256:42248:0]        mm_posix.c:291  UCX  ERROR shm_unlink(/ucx_shm_posix_4051772b) failed: No such file or directory
[1725154089.542539] [cluster-256-hpc-256:42248:0]        mm_posix.c:291  UCX  ERROR shm_unlink(/ucx_shm_posix_46d6dec0) failed: No such file or directory
[1725154089.542549] [cluster-256-hpc-256:41833:0]        mm_posix.c:291  UCX  ERROR shm_unlink(/ucx_shm_posix_26d40661) failed: No such file or directory
[1725154089.542606] [cluster-256-hpc-256:41833:0]        mm_posix.c:291  UCX  ERROR shm_unlink(/ucx_shm_posix_61fede56) failed: No such file or directory
[1725154089.542815] [cluster-256-hpc-256:43540:0]        mm_posix.c:291  UCX  ERROR shm_unlink(/ucx_shm_posix_4b6cc233) failed: No such file or directory
[1725154089.542875] [cluster-256-hpc-256:43540:0]        mm_posix.c:291  UCX  ERROR shm_unlink(/ucx_shm_posix_463d7eda) failed: No such file or directory
[1725154089.542887] [cluster-256-hpc-256:43827:0]        mm_posix.c:291  UCX  ERROR shm_unlink(/ucx_shm_posix_51f9862a) failed: No such file or directory
[1725154089.542954] [cluster-256-hpc-256:43827:0]        mm_posix.c:291  UCX  ERROR shm_unlink(/ucx_shm_posix_51f212d5) failed: No such file or directory
[1725154089.543579] [cluster-256-hpc-256:42685:0]        mm_posix.c:291  UCX  ERROR shm_unlink(/ucx_shm_posix_208baf87) failed: No such file or directory
[1725154089.543636] [cluster-256-hpc-256:42685:0]        mm_posix.c:291  UCX  ERROR shm_unlink(/ucx_shm_posix_534a1a0c) failed: No such file or directory
[1725154089.543824] [cluster-256-hpc-256:41897:0]        mm_posix.c:291  UCX  ERROR shm_unlink(/ucx_shm_posix_6be656c9) failed: No such file or directory
[1725154089.543876] [cluster-256-hpc-256:41897:0]        mm_posix.c:291  UCX  ERROR shm_unlink(/ucx_shm_posix_78b2873e) failed: No such file or directory
[1725154089.543893] [cluster-256-hpc-256:42190:0]        mm_posix.c:291  UCX  ERROR shm_unlink(/ucx_shm_posix_3d2a65d0) failed: No such file or directory
[1725154089.543950] [cluster-256-hpc-256:42190:0]        mm_posix.c:291  UCX  ERROR shm_unlink(/ucx_shm_posix_5988150e) failed: No such file or directory
[1725154089.544361] [cluster-256-hpc-256:41777:0]        mm_posix.c:291  UCX  ERROR shm_unlink(/ucx_shm_posix_3dcf0a4a) failed: No such file or directory
[1725154089.544412] [cluster-256-hpc-256:41777:0]        mm_posix.c:291  UCX  ERROR shm_unlink(/ucx_shm_posix_60008442) failed: No such file or directory
[1725154089.544881] [cluster-256-hpc-256:41643:0]        mm_posix.c:291  UCX  ERROR shm_unlink(/ucx_shm_posix_70a17b94) failed: No such file or directory
[1725154089.544866] [cluster-256-hpc-256:41421:0]        mm_posix.c:291  UCX  ERROR shm_unlink(/ucx_shm_posix_4ed55d05) failed: No such file or directory
[1725154089.544949] [cluster-256-hpc-256:41421:0]        mm_posix.c:291  UCX  ERROR shm_unlink(/ucx_shm_posix_cd6f533) failed: No such file or directory
[1725154089.545008] [cluster-256-hpc-256:41643:0]        mm_posix.c:291  UCX  ERROR shm_unlink(/ucx_shm_posix_c8e7f50) failed: No such file or directory
[1725154089.545080] [cluster-256-hpc-256:41422:0]        mm_posix.c:291  UCX  ERROR shm_unlink(/ucx_shm_posix_35ef3e30) failed: No such file or directory
[1725154089.545137] [cluster-256-hpc-256:41422:0]        mm_posix.c:291  UCX  ERROR shm_unlink(/ucx_shm_posix_676fe15d) failed: No such file or directory
[1725154089.545158] [cluster-256-hpc-256:41953:0]        mm_posix.c:291  UCX  ERROR shm_unlink(/ucx_shm_posix_6781e79a) failed: No such file or directory
[1725154089.545209] [cluster-256-hpc-256:41953:0]        mm_posix.c:291  UCX  ERROR shm_unlink(/ucx_shm_posix_2c311a9b) failed: No such file or directory
[1725154089.545206] [cluster-256-hpc-256:43856:0]        mm_posix.c:291  UCX  ERROR shm_unlink(/ucx_shm_posix_60b227eb) failed: No such file or directory
[1725154089.545265] [cluster-256-hpc-256:43856:0]        mm_posix.c:291  UCX  ERROR shm_unlink(/ucx_shm_posix_2dbe1d92) failed: No such file or directory
[1725154089.545297] [cluster-256-hpc-256:41783:0]        mm_posix.c:291  UCX  ERROR shm_unlink(/ucx_shm_posix_5e2c153f) failed: No such file or directory
[1725154089.545351] [cluster-256-hpc-256:41783:0]        mm_posix.c:291  UCX  ERROR shm_unlink(/ucx_shm_posix_45946c84) failed: No such file or directory
[1725154089.545414] [cluster-256-hpc-256:42360:0]        mm_posix.c:291  UCX  ERROR shm_unlink(/ucx_shm_posix_4d1976ba) failed: No such file or directory
[1725154089.545468] [cluster-256-hpc-256:42360:0]        mm_posix.c:291  UCX  ERROR shm_unlink(/ucx_shm_posix_3fbe85da) failed: No such file or directory
[1725154089.545549] [cluster-256-hpc-256:43324:0]        mm_posix.c:291  UCX  ERROR shm_unlink(/ucx_shm_posix_3b61b28e) failed: No such file or directory
[1725154089.545607] [cluster-256-hpc-256:43324:0]        mm_posix.c:291  UCX  ERROR shm_unlink(/ucx_shm_posix_33696059) failed: No such file or directory
[1725154089.545640] [cluster-256-hpc-256:41350:0]        mm_posix.c:291  UCX  ERROR shm_unlink(/ucx_shm_posix_58ac9a8b) failed: No such file or directory
[1725154089.545699] [cluster-256-hpc-256:41350:0]        mm_posix.c:291  UCX  ERROR shm_unlink(/ucx_shm_posix_17f4b281) failed: No such file or directory
[1725154089.545785] [cluster-256-hpc-256:43719:0]        mm_posix.c:291  UCX  ERROR shm_unlink(/ucx_shm_posix_10d51623) failed: No such file or directory
[1725154089.545844] [cluster-256-hpc-256:43719:0]        mm_posix.c:291  UCX  ERROR shm_unlink(/ucx_shm_posix_6ce1e310) failed: No such file or directory
[1725154089.545818] [cluster-256-hpc-256:42007:0]        mm_posix.c:291  UCX  ERROR shm_unlink(/ucx_shm_posix_56431c88) failed: No such file or directory
[1725154089.545874] [cluster-256-hpc-256:42007:0]        mm_posix.c:291  UCX  ERROR shm_unlink(/ucx_shm_posix_34c1398f) failed: No such file or directory
[1725154089.545921] [cluster-256-hpc-256:42939:0]        mm_posix.c:291  UCX  ERROR shm_unlink(/ucx_shm_posix_77b66661) failed: No such file or directory
[1725154089.545962] [cluster-256-hpc-256:42882:0]        mm_posix.c:291  UCX  ERROR shm_unlink(/ucx_shm_posix_59dfced) failed: No such file or directory
[1725154089.545967] [cluster-256-hpc-256:42939:0]        mm_posix.c:291  UCX  ERROR shm_unlink(/ucx_shm_posix_3a0657af) failed: No such file or directory
[1725154089.545970] [cluster-256-hpc-256:42466:0]        mm_posix.c:291  UCX  ERROR shm_unlink(/ucx_shm_posix_2189b427) failed: No such file or directory
[1725154089.546022] [cluster-256-hpc-256:42466:0]        mm_posix.c:291  UCX  ERROR shm_unlink(/ucx_shm_posix_6f2d4a9) failed: No such file or directory
[1725154089.546025] [cluster-256-hpc-256:42882:0]        mm_posix.c:291  UCX  ERROR shm_unlink(/ucx_shm_posix_638fae82) failed: No such file or directory
[1725154089.546184] [cluster-256-hpc-256:42081:0]        mm_posix.c:291  UCX  ERROR shm_unlink(/ucx_shm_posix_36b9b814) failed: No such file or directory
[1725154089.546234] [cluster-256-hpc-256:42081:0]        mm_posix.c:291  UCX  ERROR shm_unlink(/ucx_shm_posix_4ec91232) failed: No such file or directory
[1725154089.546133] [cluster-256-hpc-256:41745:0]        mm_posix.c:291  UCX  ERROR shm_unlink(/ucx_shm_posix_6cf09e5b) failed: No such file or directory
[1725154089.546184] [cluster-256-hpc-256:41745:0]        mm_posix.c:291  UCX  ERROR shm_unlink(/ucx_shm_posix_5ea451e) failed: No such file or directory
[1725154089.546240] [cluster-256-hpc-256:43737:0]        mm_posix.c:291  UCX  ERROR shm_unlink(/ucx_shm_posix_55728031) failed: No such file or directory
[1725154089.546291] [cluster-256-hpc-256:43737:0]        mm_posix.c:291  UCX  ERROR shm_unlink(/ucx_shm_posix_177948e7) failed: No such file or directory
[1725154089.546444] [cluster-256-hpc-256:42218:0]        mm_posix.c:291  UCX  ERROR shm_unlink(/ucx_shm_posix_2e97318b) failed: No such file or directory
[1725154089.546495] [cluster-256-hpc-256:42218:0]        mm_posix.c:291  UCX  ERROR shm_unlink(/ucx_shm_posix_1dd5353) failed: No such file or directory
[1725154089.546585] [cluster-256-hpc-256:41638:0]        mm_posix.c:291  UCX  ERROR shm_unlink(/ucx_shm_posix_7707ff7e) failed: No such file or directory
[1725154089.546643] [cluster-256-hpc-256:41638:0]        mm_posix.c:291  UCX  ERROR shm_unlink(/ucx_shm_posix_567eff57) failed: No such file or directory
[1725154089.546629] [cluster-256-hpc-256:42276:0]        mm_posix.c:291  UCX  ERROR shm_unlink(/ucx_shm_posix_76365094) failed: No such file or directory
[1725154089.546678] [cluster-256-hpc-256:42276:0]        mm_posix.c:291  UCX  ERROR shm_unlink(/ucx_shm_posix_46c4809e) failed: No such file or directory
[1725154089.546682] [cluster-256-hpc-256:41707:0]        mm_posix.c:291  UCX  ERROR shm_unlink(/ucx_shm_posix_1ccedc07) failed: No such file or directory
[1725154089.546744] [cluster-256-hpc-256:41707:0]        mm_posix.c:291  UCX  ERROR shm_unlink(/ucx_shm_posix_4466fc7e) failed: No such file or directory
[1725154089.546781] [cluster-256-hpc-256:41347:0]        mm_posix.c:291  UCX  ERROR shm_unlink(/ucx_shm_posix_6c2000c8) failed: No such file or directory
[1725154089.546830] [cluster-256-hpc-256:41347:0]        mm_posix.c:291  UCX  ERROR shm_unlink(/ucx_shm_posix_3652f393) failed: No such file or directory
[1725154089.546877] [cluster-256-hpc-256:41736:0]        mm_posix.c:291  UCX  ERROR shm_unlink(/ucx_shm_posix_5a0ede1c) failed: No such file or directory
[1725154089.546929] [cluster-256-hpc-256:41736:0]        mm_posix.c:291  UCX  ERROR shm_unlink(/ucx_shm_posix_3dbd6c11) failed: No such file or directory
End time: 1725154090
