Start time: 1725067656
WARNING on proc 0: Cannot open log.lammps for writing: Read-only file system (src/lammps.cpp:511)
LAMMPS (17 Apr 2024 - Development - a8687b5)
OMP_NUM_THREADS environment is not set. Defaulting to 1 thread. (src/comm.cpp:98)
  using 1 OpenMP thread(s) per MPI task
Reading data file ...
  triclinic box = (0 0 0) to (22.326 11.1412 13.778966) with tilt (0 -5.02603 0)
  32 by 16 by 24 MPI processor grid
  reading atoms ...
  304 atoms
  reading velocities ...
  304 velocities
  read_data CPU = 0.202 seconds
Replication is creating a 64x64x32 = 131072 times larger system...
  triclinic box = (0 0 0) to (1428.864 713.0368 440.92691) with tilt (0 -160.83296 0)
  32 by 24 by 16 MPI processor grid
  bounding box image = (0 -1 -1) to (0 1 1)
  bounding box extra memory = 0.03 MB
  average # of replicas added to proc = 43.93 out of 131072 (0.03%)
  39845888 atoms
  replicate CPU = 0.215 seconds

CITE-CITE-CITE-CITE-CITE-CITE-CITE-CITE-CITE-CITE-CITE-CITE-CITE

Your simulation uses code contributions which should be cited:
- pair reaxff command: doi:10.1016/j.parco.2011.08.005
- fix qeq/reaxff command: doi:10.1016/j.parco.2011.08.005
The log file lists these citations in BibTeX format.

CITE-CITE-CITE-CITE-CITE-CITE-CITE-CITE-CITE-CITE-CITE-CITE-CITE

Neighbor list info ...
  update: every = 20 steps, delay = 0 steps, check = no
  max neighbors/atom: 2000, page size: 100000
  master list distance cutoff = 11
  ghost atom cutoff = 11
  binsize = 5.5, bins = 290 130 81
  2 neighbor lists, perpetual/occasional/extra = 2 0 0
  (1) pair reaxff, perpetual
      attributes: half, newton off, ghost
      pair build: half/bin/ghost/newtoff
      stencil: full/ghost/bin/3d
      bin: standard
  (2) fix qeq/reax, perpetual, copy from (1)
      attributes: half, newton off
      pair build: copy
      stencil: none
      bin: none
Setting up Verlet run ...
  Unit style    : real
  Current step  : 0
  Time step     : 0.1
Per MPI rank memory allocation (min/avg/max) = 252.6 | 252.8 | 253 Mbytes
   Step          Temp          PotEng         Press          E_vdwl         E_coul         Volume    
         0   300           -113.27833      439.02048     -111.57687     -1.7014647      4.4923072e+08
        10   300.76708     -113.28045      807.30078     -111.57901     -1.7014362      4.4923072e+08
        20   302.42351     -113.28524      1696.9908     -111.58392     -1.7013253      4.4923072e+08
        30   302.57588     -113.28557      4297.9273     -111.58447     -1.7010962      4.4923072e+08
        40   300.62223     -113.27967      6393.3851     -111.5789      -1.7007688      4.4923072e+08
        50   297.4189      -113.27008      6471.1308     -111.56968     -1.7004027      4.4923072e+08
        60   294.72953     -113.26202      6185.7111     -111.56199     -1.7000318      4.4923072e+08
        70   294.6668      -113.26179      6831.2232     -111.56213     -1.6996547      4.4923072e+08
        80   297.78807     -113.27107      8233.8672     -111.5718      -1.699276       4.4923072e+08
        90   301.67958     -113.28267      9372.0856     -111.58373     -1.6989385      4.4923072e+08
       100   302.56511     -113.28525      10370.591     -111.58656     -1.698695       4.4923072e+08
Loop time of 63.625 on 12288 procs for 100 steps with 39845888 atoms

Performance: 0.014 ns/day, 1767.361 hours/ns, 1.572 timesteps/s, 62.626 Matom-step/s
99.8% CPU use with 12288 MPI tasks x 1 OpenMP threads

MPI task timing breakdown:
Section |  min time  |  avg time  |  max time  |%varavg| %total
---------------------------------------------------------------
Pair    | 20.555     | 23.298     | 32.431     |  12.4 | 36.62
Neigh   | 0.35754    | 0.37446    | 0.44341    |   1.0 |  0.59
Comm    | 0.052842   | 1.5121     | 10.395     |  85.1 |  2.38
Output  | 0.42044    | 1.2362     | 1.3499     |   5.3 |  1.94
Modify  | 30.324     | 37.201     | 38.03      |  13.1 | 58.47
Other   |            | 0.003197   |            |       |  0.01

Nlocal:        3242.67 ave        3269 max        3209 min
Histogram: 23 549 2171 1246 116 425 2815 3833 1068 42
Nghost:        12107.8 ave       12146 max       12063 min
Histogram: 61 401 1227 1688 1299 1933 3079 1959 573 68
Neighs:    1.07025e+06 ave 1.07789e+06 max 1.06022e+06 min
Histogram: 40 602 2069 1230 171 520 2842 3728 1040 46

Total # of neighbors = 1.3151174e+10
Ave neighs/atom = 330.05097
Neighbor list builds = 5
Dangerous builds not checked
Total wall time: 0:01:06
End time: 1725067735
