Start time: 1725067788
WARNING on proc 0: Cannot open log.lammps for writing: Read-only file system (src/lammps.cpp:511)
LAMMPS (17 Apr 2024 - Development - a8687b5)
OMP_NUM_THREADS environment is not set. Defaulting to 1 thread. (src/comm.cpp:98)
  using 1 OpenMP thread(s) per MPI task
Reading data file ...
  triclinic box = (0 0 0) to (22.326 11.1412 13.778966) with tilt (0 -5.02603 0)
  32 by 16 by 24 MPI processor grid
  reading atoms ...
  304 atoms
  reading velocities ...
  304 velocities
  read_data CPU = 0.403 seconds
Replication is creating a 64x64x32 = 131072 times larger system...
  triclinic box = (0 0 0) to (1428.864 713.0368 440.92691) with tilt (0 -160.83296 0)
  32 by 24 by 16 MPI processor grid
  bounding box image = (0 -1 -1) to (0 1 1)
  bounding box extra memory = 0.03 MB
  average # of replicas added to proc = 43.93 out of 131072 (0.03%)
  39845888 atoms
  replicate CPU = 0.412 seconds

CITE-CITE-CITE-CITE-CITE-CITE-CITE-CITE-CITE-CITE-CITE-CITE-CITE

Your simulation uses code contributions which should be cited:
- pair reaxff command: doi:10.1016/j.parco.2011.08.005
- fix qeq/reaxff command: doi:10.1016/j.parco.2011.08.005
The log file lists these citations in BibTeX format.

CITE-CITE-CITE-CITE-CITE-CITE-CITE-CITE-CITE-CITE-CITE-CITE-CITE

Neighbor list info ...
  update: every = 20 steps, delay = 0 steps, check = no
  max neighbors/atom: 2000, page size: 100000
  master list distance cutoff = 11
  ghost atom cutoff = 11
  binsize = 5.5, bins = 290 130 81
  2 neighbor lists, perpetual/occasional/extra = 2 0 0
  (1) pair reaxff, perpetual
      attributes: half, newton off, ghost
      pair build: half/bin/ghost/newtoff
      stencil: full/ghost/bin/3d
      bin: standard
  (2) fix qeq/reax, perpetual, copy from (1)
      attributes: half, newton off
      pair build: copy
      stencil: none
      bin: none
Setting up Verlet run ...
  Unit style    : real
  Current step  : 0
  Time step     : 0.1
Per MPI rank memory allocation (min/avg/max) = 252.6 | 252.8 | 253 Mbytes
   Step          Temp          PotEng         Press          E_vdwl         E_coul         Volume    
         0   300           -113.27833      439.02048     -111.57687     -1.7014647      4.4923072e+08
        10   300.76708     -113.28045      807.30078     -111.57901     -1.7014362      4.4923072e+08
        20   302.42351     -113.28524      1696.9908     -111.58392     -1.7013253      4.4923072e+08
        30   302.57588     -113.28557      4297.9273     -111.58447     -1.7010962      4.4923072e+08
        40   300.62223     -113.27967      6393.3851     -111.5789      -1.7007688      4.4923072e+08
        50   297.4189      -113.27008      6471.1308     -111.56968     -1.7004027      4.4923072e+08
        60   294.72953     -113.26202      6185.7111     -111.56199     -1.7000318      4.4923072e+08
        70   294.6668      -113.26179      6831.2232     -111.56213     -1.6996547      4.4923072e+08
        80   297.78807     -113.27107      8233.8672     -111.5718      -1.699276       4.4923072e+08
        90   301.67958     -113.28267      9372.0856     -111.58373     -1.6989385      4.4923072e+08
       100   302.56511     -113.28525      10370.591     -111.58656     -1.698695       4.4923072e+08
Loop time of 72.5687 on 12288 procs for 100 steps with 39845888 atoms

Performance: 0.012 ns/day, 2015.797 hours/ns, 1.378 timesteps/s, 54.908 Matom-step/s
99.8% CPU use with 12288 MPI tasks x 1 OpenMP threads

MPI task timing breakdown:
Section |  min time  |  avg time  |  max time  |%varavg| %total
---------------------------------------------------------------
Pair    | 20.437     | 23.291     | 26.646     |  12.3 | 32.10
Neigh   | 0.35852    | 0.37429    | 0.44256    |   1.0 |  0.52
Comm    | 0.0629     | 1.3858     | 6.1856     |  66.7 |  1.91
Output  | 0.7703     | 1.0186     | 1.1224     |   4.6 |  1.40
Modify  | 44.236     | 46.496     | 47.293     |   6.8 | 64.07
Other   |            | 0.002855   |            |       |  0.00

Nlocal:        3242.67 ave        3269 max        3209 min
Histogram: 23 549 2171 1246 116 425 2815 3833 1068 42
Nghost:        12107.8 ave       12146 max       12063 min
Histogram: 61 401 1227 1688 1299 1933 3079 1959 573 68
Neighs:    1.07025e+06 ave 1.07789e+06 max 1.06022e+06 min
Histogram: 40 602 2069 1230 171 520 2842 3728 1040 46

Total # of neighbors = 1.3151174e+10
Ave neighs/atom = 330.05097
Neighbor list builds = 5
Dangerous builds not checked
Total wall time: 0:01:15
[1725067875.766477] [cluster-256-hpc-256:99125:0]        mm_posix.c:291  UCX  ERROR shm_unlink(/ucx_shm_posix_2f9d4cb4) failed: No such file or directory
[1725067875.766542] [cluster-256-hpc-256:99125:0]        mm_posix.c:291  UCX  ERROR shm_unlink(/ucx_shm_posix_2e920c60) failed: No such file or directory
[1725067875.766847] [cluster-256-hpc-256:99076:0]        mm_posix.c:291  UCX  ERROR shm_unlink(/ucx_shm_posix_2acb252a) failed: No such file or directory
[1725067875.766917] [cluster-256-hpc-256:99076:0]        mm_posix.c:291  UCX  ERROR shm_unlink(/ucx_shm_posix_58ba0a80) failed: No such file or directory
[1725067875.766857] [cluster-256-hpc-256:99075:0]        mm_posix.c:291  UCX  ERROR shm_unlink(/ucx_shm_posix_56551f54) failed: No such file or directory
[1725067875.766925] [cluster-256-hpc-256:99075:0]        mm_posix.c:291  UCX  ERROR shm_unlink(/ucx_shm_posix_4c9d85f6) failed: No such file or directory
[1725067875.768683] [cluster-256-hpc-256:98850:0]        mm_posix.c:291  UCX  ERROR shm_unlink(/ucx_shm_posix_3b016422) failed: No such file or directory
[1725067875.769054] [cluster-256-hpc-256:98850:0]        mm_posix.c:291  UCX  ERROR shm_unlink(/ucx_shm_posix_23671a98) failed: No such file or directory
[1725067875.768764] [cluster-256-hpc-256:98784:0]        mm_posix.c:291  UCX  ERROR shm_unlink(/ucx_shm_posix_1231d5ac) failed: No such file or directory
[1725067875.768830] [cluster-256-hpc-256:98784:0]        mm_posix.c:291  UCX  ERROR shm_unlink(/ucx_shm_posix_536ed249) failed: No such file or directory
[1725067875.768871] [cluster-256-hpc-256:98780:0]        mm_posix.c:291  UCX  ERROR shm_unlink(/ucx_shm_posix_59545977) failed: No such file or directory
[1725067875.768933] [cluster-256-hpc-256:98780:0]        mm_posix.c:291  UCX  ERROR shm_unlink(/ucx_shm_posix_4dde4d3f) failed: No such file or directory
[1725067875.769282] [cluster-256-hpc-256:99264:0]        mm_posix.c:291  UCX  ERROR shm_unlink(/ucx_shm_posix_1d2e6b94) failed: No such file or directory
[1725067875.769316] [cluster-256-hpc-256:99430:0]        mm_posix.c:291  UCX  ERROR shm_unlink(/ucx_shm_posix_2a1390d3) failed: No such file or directory
[1725067875.769510] [cluster-256-hpc-256:99430:0]        mm_posix.c:291  UCX  ERROR shm_unlink(/ucx_shm_posix_118be817) failed: No such file or directory
[1725067875.769373] [cluster-256-hpc-256:99819:0]        mm_posix.c:291  UCX  ERROR shm_unlink(/ucx_shm_posix_77a1041f) failed: No such file or directory
[1725067875.769528] [cluster-256-hpc-256:99819:0]        mm_posix.c:291  UCX  ERROR shm_unlink(/ucx_shm_posix_37fd562) failed: No such file or directory
[1725067875.769322] [cluster-256-hpc-256:99895:0]        mm_posix.c:291  UCX  ERROR shm_unlink(/ucx_shm_posix_17b97882) failed: No such file or directory
[1725067875.769515] [cluster-256-hpc-256:99895:0]        mm_posix.c:291  UCX  ERROR shm_unlink(/ucx_shm_posix_64ba1bd) failed: No such file or directory
[1725067875.769422] [cluster-256-hpc-256:100096:0]        mm_posix.c:291  UCX  ERROR shm_unlink(/ucx_shm_posix_224f07a6) failed: No such file or directory
[1725067875.769607] [cluster-256-hpc-256:100096:0]        mm_posix.c:291  UCX  ERROR shm_unlink(/ucx_shm_posix_3d06a4b7) failed: No such file or directory
[1725067875.769377] [cluster-256-hpc-256:100311:0]        mm_posix.c:291  UCX  ERROR shm_unlink(/ucx_shm_posix_7a1e6535) failed: No such file or directory
[1725067875.769385] [cluster-256-hpc-256:100421:0]        mm_posix.c:291  UCX  ERROR shm_unlink(/ucx_shm_posix_2c11647e) failed: No such file or directory
[1725067875.769428] [cluster-256-hpc-256:100548:0]        mm_posix.c:291  UCX  ERROR shm_unlink(/ucx_shm_posix_2aa691fc) failed: No such file or directory
[1725067875.769614] [cluster-256-hpc-256:100548:0]        mm_posix.c:291  UCX  ERROR shm_unlink(/ucx_shm_posix_4b985b2f) failed: No such file or directory
[1725067875.769421] [cluster-256-hpc-256:100744:0]        mm_posix.c:291  UCX  ERROR shm_unlink(/ucx_shm_posix_42bed131) failed: No such file or directory
[1725067875.769603] [cluster-256-hpc-256:100744:0]        mm_posix.c:291  UCX  ERROR shm_unlink(/ucx_shm_posix_7908328a) failed: No such file or directory
[1725067875.769401] [cluster-256-hpc-256:100806:0]        mm_posix.c:291  UCX  ERROR shm_unlink(/ucx_shm_posix_38a7bb13) failed: No such file or directory
[1725067875.769600] [cluster-256-hpc-256:100806:0]        mm_posix.c:291  UCX  ERROR shm_unlink(/ucx_shm_posix_609fc323) failed: No such file or directory
[1725067875.769477] [cluster-256-hpc-256:100937:0]        mm_posix.c:291  UCX  ERROR shm_unlink(/ucx_shm_posix_5b5c29c5) failed: No such file or directory
[1725067875.769417] [cluster-256-hpc-256:101049:0]        mm_posix.c:291  UCX  ERROR shm_unlink(/ucx_shm_posix_74ec068f) failed: No such file or directory
[1725067875.769632] [cluster-256-hpc-256:101049:0]        mm_posix.c:291  UCX  ERROR shm_unlink(/ucx_shm_posix_520aaf0e) failed: No such file or directory
[1725067875.769415] [cluster-256-hpc-256:101114:0]        mm_posix.c:291  UCX  ERROR shm_unlink(/ucx_shm_posix_4c39eb33) failed: No such file or directory
[1725067875.769426] [cluster-256-hpc-256:101167:0]        mm_posix.c:291  UCX  ERROR shm_unlink(/ucx_shm_posix_53ee7cd0) failed: No such file or directory
[1725067875.769624] [cluster-256-hpc-256:101167:0]        mm_posix.c:291  UCX  ERROR shm_unlink(/ucx_shm_posix_18480774) failed: No such file or directory
[1725067875.769515] [cluster-256-hpc-256:100616:0]        mm_posix.c:291  UCX  ERROR shm_unlink(/ucx_shm_posix_7e2f6154) failed: No such file or directory
[1725067875.769674] [cluster-256-hpc-256:100616:0]        mm_posix.c:291  UCX  ERROR shm_unlink(/ucx_shm_posix_4f664859) failed: No such file or directory
[1725067875.769845] [cluster-256-hpc-256:100657:0]        mm_posix.c:291  UCX  ERROR shm_unlink(/ucx_shm_posix_5be7c00e) failed: No such file or directory
[1725067875.769839] [cluster-256-hpc-256:100760:0]        mm_posix.c:291  UCX  ERROR shm_unlink(/ucx_shm_posix_1f84e23f) failed: No such file or directory
[1725067875.769885] [cluster-256-hpc-256:100981:0]        mm_posix.c:291  UCX  ERROR shm_unlink(/ucx_shm_posix_1b46889) failed: No such file or directory
[1725067875.769959] [cluster-256-hpc-256:100981:0]        mm_posix.c:291  UCX  ERROR shm_unlink(/ucx_shm_posix_70ce80d6) failed: No such file or directory
[1725067875.769852] [cluster-256-hpc-256:100847:0]        mm_posix.c:291  UCX  ERROR shm_unlink(/ucx_shm_posix_51aa64e3) failed: No such file or directory
[1725067875.769904] [cluster-256-hpc-256:101063:0]        mm_posix.c:291  UCX  ERROR shm_unlink(/ucx_shm_posix_3ce0ec7f) failed: No such file or directory
[1725067875.769667] [cluster-256-hpc-256:100937:0]        mm_posix.c:291  UCX  ERROR shm_unlink(/ucx_shm_posix_5aa34705) failed: No such file or directory
[1725067875.769840] [cluster-256-hpc-256:101057:0]        mm_posix.c:291  UCX  ERROR shm_unlink(/ucx_shm_posix_5631907c) failed: No such file or directory
[1725067875.769833] [cluster-256-hpc-256:101148:0]        mm_posix.c:291  UCX  ERROR shm_unlink(/ucx_shm_posix_4f25f9bf) failed: No such file or directory
[1725067875.769684] [cluster-256-hpc-256:101114:0]        mm_posix.c:291  UCX  ERROR shm_unlink(/ucx_shm_posix_4ede9a9f) failed: No such file or directory
[1725067875.769642] [cluster-256-hpc-256:99126:0]        mm_posix.c:291  UCX  ERROR shm_unlink(/ucx_shm_posix_1e878d1f) failed: No such file or directory
[1725067875.769811] [cluster-256-hpc-256:99126:0]        mm_posix.c:291  UCX  ERROR shm_unlink(/ucx_shm_posix_42240b3f) failed: No such file or directory
[1725067875.769715] [cluster-256-hpc-256:99129:0]        mm_posix.c:291  UCX  ERROR shm_unlink(/ucx_shm_posix_3814c2e1) failed: No such file or directory
[1725067875.769937] [cluster-256-hpc-256:99129:0]        mm_posix.c:291  UCX  ERROR shm_unlink(/ucx_shm_posix_f114ab7) failed: No such file or directory
[1725067875.769392] [cluster-256-hpc-256:99247:0]        mm_posix.c:291  UCX  ERROR shm_unlink(/ucx_shm_posix_2e18e469) failed: No such file or directory
[1725067875.769602] [cluster-256-hpc-256:99247:0]        mm_posix.c:291  UCX  ERROR shm_unlink(/ucx_shm_posix_24bc610f) failed: No such file or directory
[1725067875.769649] [cluster-256-hpc-256:99225:0]        mm_posix.c:291  UCX  ERROR shm_unlink(/ucx_shm_posix_129a8692) failed: No such file or directory
[1725067875.769809] [cluster-256-hpc-256:99225:0]        mm_posix.c:291  UCX  ERROR shm_unlink(/ucx_shm_posix_6a20f6e8) failed: No such file or directory
[1725067875.769795] [cluster-256-hpc-256:99307:0]        mm_posix.c:291  UCX  ERROR shm_unlink(/ucx_shm_posix_5e807294) failed: No such file or directory
[1725067875.770017] [cluster-256-hpc-256:99307:0]        mm_posix.c:291  UCX  ERROR shm_unlink(/ucx_shm_posix_3ef94dfe) failed: No such file or directory
[1725067875.769385] [cluster-256-hpc-256:99347:0]        mm_posix.c:291  UCX  ERROR shm_unlink(/ucx_shm_posix_350ba578) failed: No such file or directory
[1725067875.769581] [cluster-256-hpc-256:99347:0]        mm_posix.c:291  UCX  ERROR shm_unlink(/ucx_shm_posix_4f4fcfd7) failed: No such file or directory
[1725067875.769825] [cluster-256-hpc-256:99394:0]        mm_posix.c:291  UCX  ERROR shm_unlink(/ucx_shm_posix_540abec9) failed: No such file or directory
[1725067875.769992] [cluster-256-hpc-256:99394:0]        mm_posix.c:291  UCX  ERROR shm_unlink(/ucx_shm_posix_2585d178) failed: No such file or directory
[1725067875.769848] [cluster-256-hpc-256:99396:0]        mm_posix.c:291  UCX  ERROR shm_unlink(/ucx_shm_posix_49f404b1) failed: No such file or directory
[1725067875.770068] [cluster-256-hpc-256:99396:0]        mm_posix.c:291  UCX  ERROR shm_unlink(/ucx_shm_posix_16b6ddc1) failed: No such file or directory
[1725067875.769878] [cluster-256-hpc-256:99264:0]        mm_posix.c:291  UCX  ERROR shm_unlink(/ucx_shm_posix_3cef86ba) failed: No such file or directory
[1725067875.769433] [cluster-256-hpc-256:99652:0]        mm_posix.c:291  UCX  ERROR shm_unlink(/ucx_shm_posix_5aba470c) failed: No such file or directory
[1725067875.769622] [cluster-256-hpc-256:99652:0]        mm_posix.c:291  UCX  ERROR shm_unlink(/ucx_shm_posix_611e9183) failed: No such file or directory
[1725067875.769856] [cluster-256-hpc-256:99734:0]        mm_posix.c:291  UCX  ERROR shm_unlink(/ucx_shm_posix_3e131832) failed: No such file or directory
[1725067875.769794] [cluster-256-hpc-256:99658:0]        mm_posix.c:291  UCX  ERROR shm_unlink(/ucx_shm_posix_5e7a286e) failed: No such file or directory
[1725067875.770004] [cluster-256-hpc-256:99658:0]        mm_posix.c:291  UCX  ERROR shm_unlink(/ucx_shm_posix_4055cc5) failed: No such file or directory
[1725067875.769850] [cluster-256-hpc-256:99812:0]        mm_posix.c:291  UCX  ERROR shm_unlink(/ucx_shm_posix_4edcf71e) failed: No such file or directory
[1725067875.769832] [cluster-256-hpc-256:99788:0]        mm_posix.c:291  UCX  ERROR shm_unlink(/ucx_shm_posix_15a836bb) failed: No such file or directory
[1725067875.770046] [cluster-256-hpc-256:99788:0]        mm_posix.c:291  UCX  ERROR shm_unlink(/ucx_shm_posix_28be12c5) failed: No such file or directory
[1725067875.769824] [cluster-256-hpc-256:99888:0]        mm_posix.c:291  UCX  ERROR shm_unlink(/ucx_shm_posix_334f32e7) failed: No such file or directory
[1725067875.770043] [cluster-256-hpc-256:99888:0]        mm_posix.c:291  UCX  ERROR shm_unlink(/ucx_shm_posix_4781389d) failed: No such file or directory
[1725067875.769511] [cluster-256-hpc-256:100009:0]        mm_posix.c:291  UCX  ERROR shm_unlink(/ucx_shm_posix_6ee2cd80) failed: No such file or directory
[1725067875.769671] [cluster-256-hpc-256:100009:0]        mm_posix.c:291  UCX  ERROR shm_unlink(/ucx_shm_posix_380aafbc) failed: No such file or directory
[1725067875.769811] [cluster-256-hpc-256:100006:0]        mm_posix.c:291  UCX  ERROR shm_unlink(/ucx_shm_posix_c2769c1) failed: No such file or directory
[1725067875.770032] [cluster-256-hpc-256:100006:0]        mm_posix.c:291  UCX  ERROR shm_unlink(/ucx_shm_posix_540184a6) failed: No such file or directory
[1725067875.769866] [cluster-256-hpc-256:100168:0]        mm_posix.c:291  UCX  ERROR shm_unlink(/ucx_shm_posix_6bfead13) failed: No such file or directory
[1725067875.769782] [cluster-256-hpc-256:100147:0]        mm_posix.c:291  UCX  ERROR shm_unlink(/ucx_shm_posix_3cd38fd7) failed: No such file or directory
[1725067875.770001] [cluster-256-hpc-256:100147:0]        mm_posix.c:291  UCX  ERROR shm_unlink(/ucx_shm_posix_264b1dde) failed: No such file or directory
[1725067875.769739] [cluster-256-hpc-256:100181:0]        mm_posix.c:291  UCX  ERROR shm_unlink(/ucx_shm_posix_564789dc) failed: No such file or directory
[1725067875.769830] [cluster-256-hpc-256:100181:0]        mm_posix.c:291  UCX  ERROR shm_unlink(/ucx_shm_posix_25c3e655) failed: No such file or directory
[1725067875.769802] [cluster-256-hpc-256:100247:0]        mm_posix.c:291  UCX  ERROR shm_unlink(/ucx_shm_posix_4e0a3d1f) failed: No such file or directory
[1725067875.770021] [cluster-256-hpc-256:100247:0]        mm_posix.c:291  UCX  ERROR shm_unlink(/ucx_shm_posix_59d91262) failed: No such file or directory
[1725067875.769814] [cluster-256-hpc-256:100349:0]        mm_posix.c:291  UCX  ERROR shm_unlink(/ucx_shm_posix_4441fbdc) failed: No such file or directory
[1725067875.770126] [cluster-256-hpc-256:100349:0]        mm_posix.c:291  UCX  ERROR shm_unlink(/ucx_shm_posix_14d02fe6) failed: No such file or directory
[1725067875.769887] [cluster-256-hpc-256:100312:0]        mm_posix.c:291  UCX  ERROR shm_unlink(/ucx_shm_posix_22b852b8) failed: No such file or directory
[1725067875.769637] [cluster-256-hpc-256:100311:0]        mm_posix.c:291  UCX  ERROR shm_unlink(/ucx_shm_posix_53e130) failed: No such file or directory
[1725067875.769877] [cluster-256-hpc-256:100482:0]        mm_posix.c:291  UCX  ERROR shm_unlink(/ucx_shm_posix_13ec64f) failed: No such file or directory
[1725067875.770013] [cluster-256-hpc-256:100482:0]        mm_posix.c:291  UCX  ERROR shm_unlink(/ucx_shm_posix_17980e41) failed: No such file or directory
[1725067875.769871] [cluster-256-hpc-256:100437:0]        mm_posix.c:291  UCX  ERROR shm_unlink(/ucx_shm_posix_3deac8ab) failed: No such file or directory
[1725067875.770085] [cluster-256-hpc-256:100437:0]        mm_posix.c:291  UCX  ERROR shm_unlink(/ucx_shm_posix_36bc4e90) failed: No such file or directory
[1725067875.769682] [cluster-256-hpc-256:100421:0]        mm_posix.c:291  UCX  ERROR shm_unlink(/ucx_shm_posix_1e35c81c) failed: No such file or directory
[1725067875.769796] [cluster-256-hpc-256:100489:0]        mm_posix.c:291  UCX  ERROR shm_unlink(/ucx_shm_posix_19894112) failed: No such file or directory
[1725067875.770008] [cluster-256-hpc-256:100489:0]        mm_posix.c:291  UCX  ERROR shm_unlink(/ucx_shm_posix_39581195) failed: No such file or directory
[1725067875.770146] [cluster-256-hpc-256:100041:0]        mm_posix.c:291  UCX  ERROR shm_unlink(/ucx_shm_posix_fb0835e) failed: No such file or directory
[1725067875.770309] [cluster-256-hpc-256:100041:0]        mm_posix.c:291  UCX  ERROR shm_unlink(/ucx_shm_posix_3ca94d12) failed: No such file or directory
[1725067875.770099] [cluster-256-hpc-256:100168:0]        mm_posix.c:291  UCX  ERROR shm_unlink(/ucx_shm_posix_120b0d78) failed: No such file or directory
[1725067875.769932] [cluster-256-hpc-256:100179:0]        mm_posix.c:291  UCX  ERROR shm_unlink(/ucx_shm_posix_159c7c1c) failed: No such file or directory
[1725067875.770294] [cluster-256-hpc-256:100179:0]        mm_posix.c:291  UCX  ERROR shm_unlink(/ucx_shm_posix_5062acc) failed: No such file or directory
[1725067875.769914] [cluster-256-hpc-256:100259:0]        mm_posix.c:291  UCX  ERROR shm_unlink(/ucx_shm_posix_6294913e) failed: No such file or directory
[1725067875.770026] [cluster-256-hpc-256:100259:0]        mm_posix.c:291  UCX  ERROR shm_unlink(/ucx_shm_posix_70729944) failed: No such file or directory
[1725067875.769946] [cluster-256-hpc-256:100246:0]        mm_posix.c:291  UCX  ERROR shm_unlink(/ucx_shm_posix_2a127f40) failed: No such file or directory
[1725067875.770231] [cluster-256-hpc-256:100246:0]        mm_posix.c:291  UCX  ERROR shm_unlink(/ucx_shm_posix_5815e0f6) failed: No such file or directory
[1725067875.769921] [cluster-256-hpc-256:100357:0]        mm_posix.c:291  UCX  ERROR shm_unlink(/ucx_shm_posix_3c408129) failed: No such file or directory
[1725067875.770222] [cluster-256-hpc-256:100357:0]        mm_posix.c:291  UCX  ERROR shm_unlink(/ucx_shm_posix_5d0a42e4) failed: No such file or directory
[1725067875.770288] [cluster-256-hpc-256:100312:0]        mm_posix.c:291  UCX  ERROR shm_unlink(/ucx_shm_posix_33477d7a) failed: No such file or directory
[1725067875.769977] [cluster-256-hpc-256:100488:0]        mm_posix.c:291  UCX  ERROR shm_unlink(/ucx_shm_posix_2fcf239d) failed: No such file or directory
[1725067875.770309] [cluster-256-hpc-256:100488:0]        mm_posix.c:291  UCX  ERROR shm_unlink(/ucx_shm_posix_7970ea59) failed: No such file or directory
[1725067875.769972] [cluster-256-hpc-256:100573:0]        mm_posix.c:291  UCX  ERROR shm_unlink(/ucx_shm_posix_17d5e321) failed: No such file or directory
[1725067875.770172] [cluster-256-hpc-256:100573:0]        mm_posix.c:291  UCX  ERROR shm_unlink(/ucx_shm_posix_6855eca1) failed: No such file or directory
[1725067875.769929] [cluster-256-hpc-256:100551:0]        mm_posix.c:291  UCX  ERROR shm_unlink(/ucx_shm_posix_48c6832a) failed: No such file or directory
[1725067875.770169] [cluster-256-hpc-256:100551:0]        mm_posix.c:291  UCX  ERROR shm_unlink(/ucx_shm_posix_2d9b6910) failed: No such file or directory
[1725067875.769967] [cluster-256-hpc-256:100715:0]        mm_posix.c:291  UCX  ERROR shm_unlink(/ucx_shm_posix_70511ffe) failed: No such file or directory
[1725067875.770166] [cluster-256-hpc-256:100715:0]        mm_posix.c:291  UCX  ERROR shm_unlink(/ucx_shm_posix_1aa374d5) failed: No such file or directory
[1725067875.770055] [cluster-256-hpc-256:100691:0]        mm_posix.c:291  UCX  ERROR shm_unlink(/ucx_shm_posix_3073a08a) failed: No such file or directory
[1725067875.770287] [cluster-256-hpc-256:100691:0]        mm_posix.c:291  UCX  ERROR shm_unlink(/ucx_shm_posix_48091628) failed: No such file or directory
[1725067875.769959] [cluster-256-hpc-256:100839:0]        mm_posix.c:291  UCX  ERROR shm_unlink(/ucx_shm_posix_706d2e8d) failed: No such file or directory
[1725067875.770164] [cluster-256-hpc-256:100839:0]        mm_posix.c:291  UCX  ERROR shm_unlink(/ucx_shm_posix_1fe5e286) failed: No such file or directory
[1725067875.770064] [cluster-256-hpc-256:100657:0]        mm_posix.c:291  UCX  ERROR shm_unlink(/ucx_shm_posix_44dea293) failed: No such file or directory
[1725067875.770006] [cluster-256-hpc-256:100774:0]        mm_posix.c:291  UCX  ERROR shm_unlink(/ucx_shm_posix_76410858) failed: No such file or directory
[1725067875.770266] [cluster-256-hpc-256:100774:0]        mm_posix.c:291  UCX  ERROR shm_unlink(/ucx_shm_posix_64e0e6ef) failed: No such file or directory
[1725067875.770078] [cluster-256-hpc-256:100760:0]        mm_posix.c:291  UCX  ERROR shm_unlink(/ucx_shm_posix_36474ac7) failed: No such file or directory
[1725067875.769950] [cluster-256-hpc-256:100906:0]        mm_posix.c:291  UCX  ERROR shm_unlink(/ucx_shm_posix_1dc1a538) failed: No such file or directory
[1725067875.770212] [cluster-256-hpc-256:100906:0]        mm_posix.c:291  UCX  ERROR shm_unlink(/ucx_shm_posix_56ee7400) failed: No such file or directory
[1725067875.770083] [cluster-256-hpc-256:100847:0]        mm_posix.c:291  UCX  ERROR shm_unlink(/ucx_shm_posix_5255b748) failed: No such file or directory
[1725067875.769938] [cluster-256-hpc-256:100971:0]        mm_posix.c:291  UCX  ERROR shm_unlink(/ucx_shm_posix_3871a643) failed: No such file or directory
[1725067875.770101] [cluster-256-hpc-256:100971:0]        mm_posix.c:291  UCX  ERROR shm_unlink(/ucx_shm_posix_1f16f072) failed: No such file or directory
[1725067875.770081] [cluster-256-hpc-256:101001:0]        mm_posix.c:291  UCX  ERROR shm_unlink(/ucx_shm_posix_1ffb73e6) failed: No such file or directory
[1725067875.770209] [cluster-256-hpc-256:101001:0]        mm_posix.c:291  UCX  ERROR shm_unlink(/ucx_shm_posix_fe89549) failed: No such file or directory
[1725067875.770145] [cluster-256-hpc-256:101063:0]        mm_posix.c:291  UCX  ERROR shm_unlink(/ucx_shm_posix_a05dee6) failed: No such file or directory
[1725067875.769940] [cluster-256-hpc-256:101165:0]        mm_posix.c:291  UCX  ERROR shm_unlink(/ucx_shm_posix_13b5b7d1) failed: No such file or directory
[1725067875.770272] [cluster-256-hpc-256:101165:0]        mm_posix.c:291  UCX  ERROR shm_unlink(/ucx_shm_posix_220e959e) failed: No such file or directory
[1725067875.770022] [cluster-256-hpc-256:101176:0]        mm_posix.c:291  UCX  ERROR shm_unlink(/ucx_shm_posix_2de879bc) failed: No such file or directory
[1725067875.770258] [cluster-256-hpc-256:101176:0]        mm_posix.c:291  UCX  ERROR shm_unlink(/ucx_shm_posix_3894564f) failed: No such file or directory
[1725067875.770058] [cluster-256-hpc-256:101057:0]        mm_posix.c:291  UCX  ERROR shm_unlink(/ucx_shm_posix_5956f36a) failed: No such file or directory
[1725067875.770126] [cluster-256-hpc-256:101207:0]        mm_posix.c:291  UCX  ERROR shm_unlink(/ucx_shm_posix_68a7f465) failed: No such file or directory
[1725067875.770308] [cluster-256-hpc-256:101207:0]        mm_posix.c:291  UCX  ERROR shm_unlink(/ucx_shm_posix_308956d9) failed: No such file or directory
[1725067875.770113] [cluster-256-hpc-256:101148:0]        mm_posix.c:291  UCX  ERROR shm_unlink(/ucx_shm_posix_24234ad2) failed: No such file or directory
[1725067875.769964] [cluster-256-hpc-256:101249:0]        mm_posix.c:291  UCX  ERROR shm_unlink(/ucx_shm_posix_28462286) failed: No such file or directory
[1725067875.770157] [cluster-256-hpc-256:101249:0]        mm_posix.c:291  UCX  ERROR shm_unlink(/ucx_shm_posix_74afd700) failed: No such file or directory
[1725067875.769980] [cluster-256-hpc-256:101216:0]        mm_posix.c:291  UCX  ERROR shm_unlink(/ucx_shm_posix_76bc2056) failed: No such file or directory
[1725067875.770103] [cluster-256-hpc-256:101216:0]        mm_posix.c:291  UCX  ERROR shm_unlink(/ucx_shm_posix_411924ff) failed: No such file or directory
[1725067875.770020] [cluster-256-hpc-256:101237:0]        mm_posix.c:291  UCX  ERROR shm_unlink(/ucx_shm_posix_57fe2985) failed: No such file or directory
[1725067875.770274] [cluster-256-hpc-256:101237:0]        mm_posix.c:291  UCX  ERROR shm_unlink(/ucx_shm_posix_5fec469f) failed: No such file or directory
[1725067875.769834] [cluster-256-hpc-256:99195:0]        mm_posix.c:291  UCX  ERROR shm_unlink(/ucx_shm_posix_54606e4a) failed: No such file or directory
[1725067875.770055] [cluster-256-hpc-256:99195:0]        mm_posix.c:291  UCX  ERROR shm_unlink(/ucx_shm_posix_14e4b3ed) failed: No such file or directory
[1725067875.770005] [cluster-256-hpc-256:99256:0]        mm_posix.c:291  UCX  ERROR shm_unlink(/ucx_shm_posix_2adae270) failed: No such file or directory
[1725067875.770288] [cluster-256-hpc-256:99256:0]        mm_posix.c:291  UCX  ERROR shm_unlink(/ucx_shm_posix_41e66f8f) failed: No such file or directory
[1725067875.769903] [cluster-256-hpc-256:99286:0]        mm_posix.c:291  UCX  ERROR shm_unlink(/ucx_shm_posix_311809c5) failed: No such file or directory
[1725067875.770160] [cluster-256-hpc-256:99286:0]        mm_posix.c:291  UCX  ERROR shm_unlink(/ucx_shm_posix_46f0a234) failed: No such file or directory
[1725067875.770070] [cluster-256-hpc-256:99342:0]        mm_posix.c:291  UCX  ERROR shm_unlink(/ucx_shm_posix_37b845f0) failed: No such file or directory
[1725067875.770332] [cluster-256-hpc-256:99342:0]        mm_posix.c:291  UCX  ERROR shm_unlink(/ucx_shm_posix_527d985e) failed: No such file or directory
[1725067875.769882] [cluster-256-hpc-256:99344:0]        mm_posix.c:291  UCX  ERROR shm_unlink(/ucx_shm_posix_13566ab) failed: No such file or directory
[1725067875.770162] [cluster-256-hpc-256:99344:0]        mm_posix.c:291  UCX  ERROR shm_unlink(/ucx_shm_posix_70c96b77) failed: No such file or directory
[1725067875.769956] [cluster-256-hpc-256:99395:0]        mm_posix.c:291  UCX  ERROR shm_unlink(/ucx_shm_posix_2abb6216) failed: No such file or directory
[1725067875.770218] [cluster-256-hpc-256:99395:0]        mm_posix.c:291  UCX  ERROR shm_unlink(/ucx_shm_posix_1a8e355d) failed: No such file or directory
[1725067875.770082] [cluster-256-hpc-256:99648:0]        mm_posix.c:291  UCX  ERROR shm_unlink(/ucx_shm_posix_c30eabd) failed: No such file or directory
[1725067875.770294] [cluster-256-hpc-256:99648:0]        mm_posix.c:291  UCX  ERROR shm_unlink(/ucx_shm_posix_7283df58) failed: No such file or directory
[1725067875.769931] [cluster-256-hpc-256:99442:0]        mm_posix.c:291  UCX  ERROR shm_unlink(/ucx_shm_posix_a2440d5) failed: No such file or directory
[1725067875.770091] [cluster-256-hpc-256:99442:0]        mm_posix.c:291  UCX  ERROR shm_unlink(/ucx_shm_posix_e39c624) failed: No such file or directory
[1725067875.769926] [cluster-256-hpc-256:99604:0]        mm_posix.c:291  UCX  ERROR shm_unlink(/ucx_shm_posix_494706f0) failed: No such file or directory
[1725067875.770176] [cluster-256-hpc-256:99604:0]        mm_posix.c:291  UCX  ERROR shm_unlink(/ucx_shm_posix_74e4d47c) failed: No such file or directory
[1725067875.770088] [cluster-256-hpc-256:99734:0]        mm_posix.c:291  UCX  ERROR shm_unlink(/ucx_shm_posix_84cd200) failed: No such file or directory
[1725067875.769989] [cluster-256-hpc-256:99727:0]        mm_posix.c:291  UCX  ERROR shm_unlink(/ucx_shm_posix_3d6902b3) failed: No such file or directory
[1725067875.770322] [cluster-256-hpc-256:99727:0]        mm_posix.c:291  UCX  ERROR shm_unlink(/ucx_shm_posix_33397643) failed: No such file or directory
[1725067875.770216] [cluster-256-hpc-256:99812:0]        mm_posix.c:291  UCX  ERROR shm_unlink(/ucx_shm_posix_b31ae1d) failed: No such file or directory
[1725067875.770039] [cluster-256-hpc-256:99810:0]        mm_posix.c:291  UCX  ERROR shm_unlink(/ucx_shm_posix_3822eedc) failed: No such file or directory
[1725067875.770286] [cluster-256-hpc-256:99810:0]        mm_posix.c:291  UCX  ERROR shm_unlink(/ucx_shm_posix_902ffee) failed: No such file or directory
[1725067875.770238] [cluster-256-hpc-256:99967:0]        mm_posix.c:291  UCX  ERROR shm_unlink(/ucx_shm_posix_7dc00eb1) failed: No such file or directory
[1725067875.770318] [cluster-256-hpc-256:99967:0]        mm_posix.c:291  UCX  ERROR shm_unlink(/ucx_shm_posix_6bdc002b) failed: No such file or directory
[1725067875.769937] [cluster-256-hpc-256:99963:0]        mm_posix.c:291  UCX  ERROR shm_unlink(/ucx_shm_posix_3dfeebbb) failed: No such file or directory
[1725067875.770184] [cluster-256-hpc-256:99963:0]        mm_posix.c:291  UCX  ERROR shm_unlink(/ucx_shm_posix_6a2d68ca) failed: No such file or directory
[1725067875.769956] [cluster-256-hpc-256:100072:0]        mm_posix.c:291  UCX  ERROR shm_unlink(/ucx_shm_posix_724fff75) failed: No such file or directory
[1725067875.770156] [cluster-256-hpc-256:100072:0]        mm_posix.c:291  UCX  ERROR shm_unlink(/ucx_shm_posix_3aab4269) failed: No such file or directory
[1725067875.770383] [cluster-256-hpc-256:101090:0]        mm_posix.c:291  UCX  ERROR shm_unlink(/ucx_shm_posix_6e9358b6) failed: No such file or directory
[1725067875.770466] [cluster-256-hpc-256:101090:0]        mm_posix.c:291  UCX  ERROR shm_unlink(/ucx_shm_posix_5221bed4) failed: No such file or directory
[1725067875.770565] [cluster-256-hpc-256:98782:0]        mm_posix.c:291  UCX  ERROR shm_unlink(/ucx_shm_posix_47f151b1) failed: No such file or directory
[1725067875.770635] [cluster-256-hpc-256:98782:0]        mm_posix.c:291  UCX  ERROR shm_unlink(/ucx_shm_posix_5f4f3864) failed: No such file or directory
[1725067875.770556] [cluster-256-hpc-256:98845:0]        mm_posix.c:291  UCX  ERROR shm_unlink(/ucx_shm_posix_6c0b546d) failed: No such file or directory
[1725067875.770643] [cluster-256-hpc-256:98845:0]        mm_posix.c:291  UCX  ERROR shm_unlink(/ucx_shm_posix_2f589cec) failed: No such file or directory
[1725067875.770447] [cluster-256-hpc-256:98888:0]        mm_posix.c:291  UCX  ERROR shm_unlink(/ucx_shm_posix_56ac7bb5) failed: No such file or directory
[1725067875.770526] [cluster-256-hpc-256:98888:0]        mm_posix.c:291  UCX  ERROR shm_unlink(/ucx_shm_posix_5d843cde) failed: No such file or directory
[1725067875.770637] [cluster-256-hpc-256:98876:0]        mm_posix.c:291  UCX  ERROR shm_unlink(/ucx_shm_posix_5b9fe83b) failed: No such file or directory
[1725067875.770719] [cluster-256-hpc-256:98876:0]        mm_posix.c:291  UCX  ERROR shm_unlink(/ucx_shm_posix_1e32331c) failed: No such file or directory
[1725067875.770562] [cluster-256-hpc-256:98924:0]        mm_posix.c:291  UCX  ERROR shm_unlink(/ucx_shm_posix_7eb3bbda) failed: No such file or directory
[1725067875.770633] [cluster-256-hpc-256:98924:0]        mm_posix.c:291  UCX  ERROR shm_unlink(/ucx_shm_posix_5d40eb99) failed: No such file or directory
[1725067875.771795] [cluster-256-hpc-256:98919:0]        mm_posix.c:291  UCX  ERROR shm_unlink(/ucx_shm_posix_4fb3781c) failed: No such file or directory
[1725067875.771885] [cluster-256-hpc-256:98919:0]        mm_posix.c:291  UCX  ERROR shm_unlink(/ucx_shm_posix_6c4932d2) failed: No such file or directory
[1725067875.772781] [cluster-256-hpc-256:98783:0]        mm_posix.c:291  UCX  ERROR shm_unlink(/ucx_shm_posix_24ba69d5) failed: No such file or directory
[1725067875.772861] [cluster-256-hpc-256:98783:0]        mm_posix.c:291  UCX  ERROR shm_unlink(/ucx_shm_posix_61ba2671) failed: No such file or directory
[1725067875.867776] [cluster-256-hpc-256:99075:0]        mm_posix.c:291  UCX  ERROR shm_unlink(/ucx_shm_posix_233df119) failed: No such file or directory
[1725067875.867864] [cluster-256-hpc-256:99075:0]        mm_posix.c:291  UCX  ERROR shm_unlink(/ucx_shm_posix_7081b1fb) failed: No such file or directory
[1725067875.868145] [cluster-256-hpc-256:98780:0]        mm_posix.c:291  UCX  ERROR shm_unlink(/ucx_shm_posix_3bec8a48) failed: No such file or directory
[1725067875.868235] [cluster-256-hpc-256:98780:0]        mm_posix.c:291  UCX  ERROR shm_unlink(/ucx_shm_posix_324c8c4d) failed: No such file or directory
[1725067875.868512] [cluster-256-hpc-256:99076:0]        mm_posix.c:291  UCX  ERROR shm_unlink(/ucx_shm_posix_6bfb09ec) failed: No such file or directory
[1725067875.868606] [cluster-256-hpc-256:99076:0]        mm_posix.c:291  UCX  ERROR shm_unlink(/ucx_shm_posix_2544203d) failed: No such file or directory
[1725067875.868743] [cluster-256-hpc-256:98784:0]        mm_posix.c:291  UCX  ERROR shm_unlink(/ucx_shm_posix_3c16ee49) failed: No such file or directory
[1725067875.868835] [cluster-256-hpc-256:98784:0]        mm_posix.c:291  UCX  ERROR shm_unlink(/ucx_shm_posix_2929af73) failed: No such file or directory
[1725067875.869246] [cluster-256-hpc-256:99195:0]        mm_posix.c:291  UCX  ERROR shm_unlink(/ucx_shm_posix_7cd7df6a) failed: No such file or directory
[1725067875.869326] [cluster-256-hpc-256:99195:0]        mm_posix.c:291  UCX  ERROR shm_unlink(/ucx_shm_posix_45ac06b7) failed: No such file or directory
[1725067875.869440] [cluster-256-hpc-256:99734:0]        mm_posix.c:291  UCX  ERROR shm_unlink(/ucx_shm_posix_1c0f5c2c) failed: No such file or directory
[1725067875.869523] [cluster-256-hpc-256:99734:0]        mm_posix.c:291  UCX  ERROR shm_unlink(/ucx_shm_posix_79ca33de) failed: No such file or directory
[1725067875.869470] [cluster-256-hpc-256:99126:0]        mm_posix.c:291  UCX  ERROR shm_unlink(/ucx_shm_posix_247fc802) failed: No such file or directory
[1725067875.869572] [cluster-256-hpc-256:99126:0]        mm_posix.c:291  UCX  ERROR shm_unlink(/ucx_shm_posix_129b2bc1) failed: No such file or directory
[1725067875.869522] [cluster-256-hpc-256:100259:0]        mm_posix.c:291  UCX  ERROR shm_unlink(/ucx_shm_posix_6fed69a6) failed: No such file or directory
[1725067875.869604] [cluster-256-hpc-256:100259:0]        mm_posix.c:291  UCX  ERROR shm_unlink(/ucx_shm_posix_709e25b1) failed: No such file or directory
[1725067875.869747] [cluster-256-hpc-256:100168:0]        mm_posix.c:291  UCX  ERROR shm_unlink(/ucx_shm_posix_718c89d1) failed: No such file or directory
[1725067875.869639] [cluster-256-hpc-256:99286:0]        mm_posix.c:291  UCX  ERROR shm_unlink(/ucx_shm_posix_2946ba68) failed: No such file or directory
[1725067875.869721] [cluster-256-hpc-256:99286:0]        mm_posix.c:291  UCX  ERROR shm_unlink(/ucx_shm_posix_4f690101) failed: No such file or directory
[1725067875.869789] [cluster-256-hpc-256:100573:0]        mm_posix.c:291  UCX  ERROR shm_unlink(/ucx_shm_posix_6afbecc5) failed: No such file or directory
[1725067875.869874] [cluster-256-hpc-256:100573:0]        mm_posix.c:291  UCX  ERROR shm_unlink(/ucx_shm_posix_307f419) failed: No such file or directory
[1725067875.869879] [cluster-256-hpc-256:99125:0]        mm_posix.c:291  UCX  ERROR shm_unlink(/ucx_shm_posix_657a9e78) failed: No such file or directory
[1725067875.869980] [cluster-256-hpc-256:99125:0]        mm_posix.c:291  UCX  ERROR shm_unlink(/ucx_shm_posix_c423cca) failed: No such file or directory
[1725067875.869824] [cluster-256-hpc-256:100168:0]        mm_posix.c:291  UCX  ERROR shm_unlink(/ucx_shm_posix_4ffb981f) failed: No such file or directory
[1725067875.869952] [cluster-256-hpc-256:99225:0]        mm_posix.c:291  UCX  ERROR shm_unlink(/ucx_shm_posix_524f0973) failed: No such file or directory
[1725067875.870032] [cluster-256-hpc-256:99225:0]        mm_posix.c:291  UCX  ERROR shm_unlink(/ucx_shm_posix_70065f7c) failed: No such file or directory
[1725067875.870030] [cluster-256-hpc-256:99810:0]        mm_posix.c:291  UCX  ERROR shm_unlink(/ucx_shm_posix_52c60439) failed: No such file or directory
[1725067875.870074] [cluster-256-hpc-256:100179:0]        mm_posix.c:291  UCX  ERROR shm_unlink(/ucx_shm_posix_2f566103) failed: No such file or directory
[1725067875.870306] [cluster-256-hpc-256:100041:0]        mm_posix.c:291  UCX  ERROR shm_unlink(/ucx_shm_posix_44410d99) failed: No such file or directory
[1725067875.870387] [cluster-256-hpc-256:100041:0]        mm_posix.c:291  UCX  ERROR shm_unlink(/ucx_shm_posix_df841fc) failed: No such file or directory
[1725067875.870270] [cluster-256-hpc-256:100147:0]        mm_posix.c:291  UCX  ERROR shm_unlink(/ucx_shm_posix_70bd276a) failed: No such file or directory
[1725067875.870352] [cluster-256-hpc-256:100147:0]        mm_posix.c:291  UCX  ERROR shm_unlink(/ucx_shm_posix_67d73dc6) failed: No such file or directory
[1725067875.870139] [cluster-256-hpc-256:99810:0]        mm_posix.c:291  UCX  ERROR shm_unlink(/ucx_shm_posix_33057ecf) failed: No such file or directory
[1725067875.870341] [cluster-256-hpc-256:100357:0]        mm_posix.c:291  UCX  ERROR shm_unlink(/ucx_shm_posix_7e2da99e) failed: No such file or directory
[1725067875.870429] [cluster-256-hpc-256:100357:0]        mm_posix.c:291  UCX  ERROR shm_unlink(/ucx_shm_posix_2491d13e) failed: No such file or directory
[1725067875.870143] [cluster-256-hpc-256:100906:0]        mm_posix.c:291  UCX  ERROR shm_unlink(/ucx_shm_posix_1b94dfd2) failed: No such file or directory
[1725067875.870219] [cluster-256-hpc-256:100906:0]        mm_posix.c:291  UCX  ERROR shm_unlink(/ucx_shm_posix_2548cadb) failed: No such file or directory
[1725067875.870446] [cluster-256-hpc-256:101049:0]        mm_posix.c:291  UCX  ERROR shm_unlink(/ucx_shm_posix_226f5d3e) failed: No such file or directory
[1725067875.870516] [cluster-256-hpc-256:101049:0]        mm_posix.c:291  UCX  ERROR shm_unlink(/ucx_shm_posix_3f9607c5) failed: No such file or directory
[1725067875.870167] [cluster-256-hpc-256:100179:0]        mm_posix.c:291  UCX  ERROR shm_unlink(/ucx_shm_posix_5ff9e54e) failed: No such file or directory
[1725067875.870149] [cluster-256-hpc-256:98850:0]        mm_posix.c:291  UCX  ERROR shm_unlink(/ucx_shm_posix_37bdb2e4) failed: No such file or directory
[1725067875.870270] [cluster-256-hpc-256:98850:0]        mm_posix.c:291  UCX  ERROR shm_unlink(/ucx_shm_posix_99585bb) failed: No such file or directory
[1725067875.870147] [cluster-256-hpc-256:99430:0]        mm_posix.c:291  UCX  ERROR shm_unlink(/ucx_shm_posix_3927c39e) failed: No such file or directory
[1725067875.870256] [cluster-256-hpc-256:99430:0]        mm_posix.c:291  UCX  ERROR shm_unlink(/ucx_shm_posix_a98bc81) failed: No such file or directory
[1725067875.870232] [cluster-256-hpc-256:99658:0]        mm_posix.c:291  UCX  ERROR shm_unlink(/ucx_shm_posix_23cab80c) failed: No such file or directory
[1725067875.870331] [cluster-256-hpc-256:99658:0]        mm_posix.c:291  UCX  ERROR shm_unlink(/ucx_shm_posix_3798320) failed: No such file or directory
[1725067875.870199] [cluster-256-hpc-256:99895:0]        mm_posix.c:291  UCX  ERROR shm_unlink(/ucx_shm_posix_350a3931) failed: No such file or directory
[1725067875.870308] [cluster-256-hpc-256:99895:0]        mm_posix.c:291  UCX  ERROR shm_unlink(/ucx_shm_posix_58354b05) failed: No such file or directory
[1725067875.870598] [cluster-256-hpc-256:99129:0]        mm_posix.c:291  UCX  ERROR shm_unlink(/ucx_shm_posix_6396bb4a) failed: No such file or directory
[1725067875.870667] [cluster-256-hpc-256:99129:0]        mm_posix.c:291  UCX  ERROR shm_unlink(/ucx_shm_posix_3297d1e8) failed: No such file or directory
[1725067875.870410] [cluster-256-hpc-256:99247:0]        mm_posix.c:291  UCX  ERROR shm_unlink(/ucx_shm_posix_7688d2be) failed: No such file or directory
[1725067875.870488] [cluster-256-hpc-256:99247:0]        mm_posix.c:291  UCX  ERROR shm_unlink(/ucx_shm_posix_7c7bb4e8) failed: No such file or directory
[1725067875.870364] [cluster-256-hpc-256:99307:0]        mm_posix.c:291  UCX  ERROR shm_unlink(/ucx_shm_posix_332e8e0a) failed: No such file or directory
[1725067875.870449] [cluster-256-hpc-256:99307:0]        mm_posix.c:291  UCX  ERROR shm_unlink(/ucx_shm_posix_53a823ed) failed: No such file or directory
[1725067875.870426] [cluster-256-hpc-256:99347:0]        mm_posix.c:291  UCX  ERROR shm_unlink(/ucx_shm_posix_5b1d2f32) failed: No such file or directory
[1725067875.870502] [cluster-256-hpc-256:99347:0]        mm_posix.c:291  UCX  ERROR shm_unlink(/ucx_shm_posix_5801db4b) failed: No such file or directory
[1725067875.870462] [cluster-256-hpc-256:99344:0]        mm_posix.c:291  UCX  ERROR shm_unlink(/ucx_shm_posix_566142dc) failed: No such file or directory
[1725067875.870554] [cluster-256-hpc-256:99344:0]        mm_posix.c:291  UCX  ERROR shm_unlink(/ucx_shm_posix_a5a7db2) failed: No such file or directory
[1725067875.870574] [cluster-256-hpc-256:99396:0]        mm_posix.c:291  UCX  ERROR shm_unlink(/ucx_shm_posix_6e349c86) failed: No such file or directory
[1725067875.870660] [cluster-256-hpc-256:99396:0]        mm_posix.c:291  UCX  ERROR shm_unlink(/ucx_shm_posix_50503b53) failed: No such file or directory
[1725067875.870705] [cluster-256-hpc-256:99395:0]        mm_posix.c:291  UCX  ERROR shm_unlink(/ucx_shm_posix_69834b4) failed: No such file or directory
[1725067875.870790] [cluster-256-hpc-256:99395:0]        mm_posix.c:291  UCX  ERROR shm_unlink(/ucx_shm_posix_36903ed4) failed: No such file or directory
[1725067875.870539] [cluster-256-hpc-256:99264:0]        mm_posix.c:291  UCX  ERROR shm_unlink(/ucx_shm_posix_13390c56) failed: No such file or directory
[1725067875.870618] [cluster-256-hpc-256:99264:0]        mm_posix.c:291  UCX  ERROR shm_unlink(/ucx_shm_posix_6fc5abf6) failed: No such file or directory
[1725067875.870478] [cluster-256-hpc-256:99812:0]        mm_posix.c:291  UCX  ERROR shm_unlink(/ucx_shm_posix_55de500) failed: No such file or directory
[1725067875.870562] [cluster-256-hpc-256:99812:0]        mm_posix.c:291  UCX  ERROR shm_unlink(/ucx_shm_posix_2ea00c69) failed: No such file or directory
[1725067875.870309] [cluster-256-hpc-256:99819:0]        mm_posix.c:291  UCX  ERROR shm_unlink(/ucx_shm_posix_42ad380f) failed: No such file or directory
[1725067875.870395] [cluster-256-hpc-256:99819:0]        mm_posix.c:291  UCX  ERROR shm_unlink(/ucx_shm_posix_87e0664) failed: No such file or directory
[1725067875.870442] [cluster-256-hpc-256:99788:0]        mm_posix.c:291  UCX  ERROR shm_unlink(/ucx_shm_posix_5f6a5bcc) failed: No such file or directory
[1725067875.870536] [cluster-256-hpc-256:99788:0]        mm_posix.c:291  UCX  ERROR shm_unlink(/ucx_shm_posix_5e918583) failed: No such file or directory
[1725067875.870434] [cluster-256-hpc-256:99888:0]        mm_posix.c:291  UCX  ERROR shm_unlink(/ucx_shm_posix_1f4ba7db) failed: No such file or directory
[1725067875.870530] [cluster-256-hpc-256:99888:0]        mm_posix.c:291  UCX  ERROR shm_unlink(/ucx_shm_posix_6f47567a) failed: No such file or directory
[1725067875.870491] [cluster-256-hpc-256:99963:0]        mm_posix.c:291  UCX  ERROR shm_unlink(/ucx_shm_posix_f2dd97a) failed: No such file or directory
[1725067875.870574] [cluster-256-hpc-256:99963:0]        mm_posix.c:291  UCX  ERROR shm_unlink(/ucx_shm_posix_24532496) failed: No such file or directory
[1725067875.870535] [cluster-256-hpc-256:100009:0]        mm_posix.c:291  UCX  ERROR shm_unlink(/ucx_shm_posix_5fe4ee3b) failed: No such file or directory
[1725067875.870614] [cluster-256-hpc-256:100009:0]        mm_posix.c:291  UCX  ERROR shm_unlink(/ucx_shm_posix_72e0b078) failed: No such file or directory
[1725067875.870673] [cluster-256-hpc-256:100489:0]        mm_posix.c:291  UCX  ERROR shm_unlink(/ucx_shm_posix_26adc62e) failed: No such file or directory
[1725067875.870742] [cluster-256-hpc-256:100489:0]        mm_posix.c:291  UCX  ERROR shm_unlink(/ucx_shm_posix_5897ca41) failed: No such file or directory
[1725067875.870736] [cluster-256-hpc-256:100006:0]        mm_posix.c:291  UCX  ERROR shm_unlink(/ucx_shm_posix_26b78c9c) failed: No such file or directory
[1725067875.870798] [cluster-256-hpc-256:100006:0]        mm_posix.c:291  UCX  ERROR shm_unlink(/ucx_shm_posix_6f0b0466) failed: No such file or directory
[1725067875.870549] [cluster-256-hpc-256:100181:0]        mm_posix.c:291  UCX  ERROR shm_unlink(/ucx_shm_posix_3a03161d) failed: No such file or directory
[1725067875.870648] [cluster-256-hpc-256:100181:0]        mm_posix.c:291  UCX  ERROR shm_unlink(/ucx_shm_posix_13856a6c) failed: No such file or directory
[1725067875.870358] [cluster-256-hpc-256:100096:0]        mm_posix.c:291  UCX  ERROR shm_unlink(/ucx_shm_posix_7741cf7d) failed: No such file or directory
[1725067875.870434] [cluster-256-hpc-256:100096:0]        mm_posix.c:291  UCX  ERROR shm_unlink(/ucx_shm_posix_130323c1) failed: No such file or directory
[1725067875.870665] [cluster-256-hpc-256:100246:0]        mm_posix.c:291  UCX  ERROR shm_unlink(/ucx_shm_posix_4df4b8ed) failed: No such file or directory
[1725067875.870780] [cluster-256-hpc-256:100246:0]        mm_posix.c:291  UCX  ERROR shm_unlink(/ucx_shm_posix_57709c7d) failed: No such file or directory
[1725067875.870558] [cluster-256-hpc-256:100247:0]        mm_posix.c:291  UCX  ERROR shm_unlink(/ucx_shm_posix_429c776d) failed: No such file or directory
[1725067875.870650] [cluster-256-hpc-256:100247:0]        mm_posix.c:291  UCX  ERROR shm_unlink(/ucx_shm_posix_18723f3d) failed: No such file or directory
[1725067875.870515] [cluster-256-hpc-256:100311:0]        mm_posix.c:291  UCX  ERROR shm_unlink(/ucx_shm_posix_2fc6c357) failed: No such file or directory
[1725067875.870590] [cluster-256-hpc-256:100311:0]        mm_posix.c:291  UCX  ERROR shm_unlink(/ucx_shm_posix_781a3f21) failed: No such file or directory
[1725067875.870752] [cluster-256-hpc-256:100312:0]        mm_posix.c:291  UCX  ERROR shm_unlink(/ucx_shm_posix_7326f4d0) failed: No such file or directory
[1725067875.870841] [cluster-256-hpc-256:100312:0]        mm_posix.c:291  UCX  ERROR shm_unlink(/ucx_shm_posix_173a08a6) failed: No such file or directory
[1725067875.870754] [cluster-256-hpc-256:100437:0]        mm_posix.c:291  UCX  ERROR shm_unlink(/ucx_shm_posix_4b4f5e6) failed: No such file or directory
[1725067875.870847] [cluster-256-hpc-256:100437:0]        mm_posix.c:291  UCX  ERROR shm_unlink(/ucx_shm_posix_2e22e84b) failed: No such file or directory
[1725067875.870696] [cluster-256-hpc-256:100421:0]        mm_posix.c:291  UCX  ERROR shm_unlink(/ucx_shm_posix_ee03713) failed: No such file or directory
[1725067875.870749] [cluster-256-hpc-256:100421:0]        mm_posix.c:291  UCX  ERROR shm_unlink(/ucx_shm_posix_35aab41a) failed: No such file or directory
[1725067875.870404] [cluster-256-hpc-256:101167:0]        mm_posix.c:291  UCX  ERROR shm_unlink(/ucx_shm_posix_c213a58) failed: No such file or directory
[1725067875.870493] [cluster-256-hpc-256:101167:0]        mm_posix.c:291  UCX  ERROR shm_unlink(/ucx_shm_posix_6ae2a23a) failed: No such file or directory
[1725067875.870767] [cluster-256-hpc-256:100616:0]        mm_posix.c:291  UCX  ERROR shm_unlink(/ucx_shm_posix_605ad85e) failed: No such file or directory
[1725067875.870828] [cluster-256-hpc-256:100616:0]        mm_posix.c:291  UCX  ERROR shm_unlink(/ucx_shm_posix_627a1faa) failed: No such file or directory
[1725067875.870486] [cluster-256-hpc-256:100548:0]        mm_posix.c:291  UCX  ERROR shm_unlink(/ucx_shm_posix_363faf9) failed: No such file or directory
[1725067875.870551] [cluster-256-hpc-256:100548:0]        mm_posix.c:291  UCX  ERROR shm_unlink(/ucx_shm_posix_5c234631) failed: No such file or directory
[1725067875.870671] [cluster-256-hpc-256:100744:0]        mm_posix.c:291  UCX  ERROR shm_unlink(/ucx_shm_posix_41007061) failed: No such file or directory
[1725067875.870481] [cluster-256-hpc-256:100806:0]        mm_posix.c:291  UCX  ERROR shm_unlink(/ucx_shm_posix_40c606d0) failed: No such file or directory
[1725067875.870592] [cluster-256-hpc-256:100806:0]        mm_posix.c:291  UCX  ERROR shm_unlink(/ucx_shm_posix_640eca00) failed: No such file or directory
[1725067875.870562] [cluster-256-hpc-256:100971:0]        mm_posix.c:291  UCX  ERROR shm_unlink(/ucx_shm_posix_1c111686) failed: No such file or directory
[1725067875.870642] [cluster-256-hpc-256:100971:0]        mm_posix.c:291  UCX  ERROR shm_unlink(/ucx_shm_posix_2ceed384) failed: No such file or directory
[1725067875.870572] [cluster-256-hpc-256:101001:0]        mm_posix.c:291  UCX  ERROR shm_unlink(/ucx_shm_posix_6215cae6) failed: No such file or directory
[1725067875.870644] [cluster-256-hpc-256:101001:0]        mm_posix.c:291  UCX  ERROR shm_unlink(/ucx_shm_posix_683f0c0) failed: No such file or directory
[1725067875.870605] [cluster-256-hpc-256:101063:0]        mm_posix.c:291  UCX  ERROR shm_unlink(/ucx_shm_posix_4ab9b240) failed: No such file or directory
[1725067875.870686] [cluster-256-hpc-256:101063:0]        mm_posix.c:291  UCX  ERROR shm_unlink(/ucx_shm_posix_19ee17b8) failed: No such file or directory
[1725067875.870547] [cluster-256-hpc-256:100937:0]        mm_posix.c:291  UCX  ERROR shm_unlink(/ucx_shm_posix_2435378e) failed: No such file or directory
[1725067875.870623] [cluster-256-hpc-256:100937:0]        mm_posix.c:291  UCX  ERROR shm_unlink(/ucx_shm_posix_602fc5d0) failed: No such file or directory
[1725067875.870853] [cluster-256-hpc-256:100072:0]        mm_posix.c:291  UCX  ERROR shm_unlink(/ucx_shm_posix_61275db3) failed: No such file or directory
[1725067875.870937] [cluster-256-hpc-256:100072:0]        mm_posix.c:291  UCX  ERROR shm_unlink(/ucx_shm_posix_6146edaf) failed: No such file or directory
[1725067875.870659] [cluster-256-hpc-256:101176:0]        mm_posix.c:291  UCX  ERROR shm_unlink(/ucx_shm_posix_61d6c734) failed: No such file or directory
[1725067875.870740] [cluster-256-hpc-256:101176:0]        mm_posix.c:291  UCX  ERROR shm_unlink(/ucx_shm_posix_62fe18f6) failed: No such file or directory
[1725067875.870635] [cluster-256-hpc-256:101057:0]        mm_posix.c:291  UCX  ERROR shm_unlink(/ucx_shm_posix_6b0ba60c) failed: No such file or directory
[1725067875.870703] [cluster-256-hpc-256:101057:0]        mm_posix.c:291  UCX  ERROR shm_unlink(/ucx_shm_posix_441a83a8) failed: No such file or directory
[1725067875.870871] [cluster-256-hpc-256:101207:0]        mm_posix.c:291  UCX  ERROR shm_unlink(/ucx_shm_posix_529a4136) failed: No such file or directory
[1725067875.870996] [cluster-256-hpc-256:101207:0]        mm_posix.c:291  UCX  ERROR shm_unlink(/ucx_shm_posix_37595160) failed: No such file or directory
[1725067875.870801] [cluster-256-hpc-256:101148:0]        mm_posix.c:291  UCX  ERROR shm_unlink(/ucx_shm_posix_16e9b290) failed: No such file or directory
[1725067875.870906] [cluster-256-hpc-256:101148:0]        mm_posix.c:291  UCX  ERROR shm_unlink(/ucx_shm_posix_3a14c064) failed: No such file or directory
[1725067875.870682] [cluster-256-hpc-256:101216:0]        mm_posix.c:291  UCX  ERROR shm_unlink(/ucx_shm_posix_666dd969) failed: No such file or directory
[1725067875.870755] [cluster-256-hpc-256:101216:0]        mm_posix.c:291  UCX  ERROR shm_unlink(/ucx_shm_posix_3d1726dc) failed: No such file or directory
[1725067875.871033] [cluster-256-hpc-256:100981:0]        mm_posix.c:291  UCX  ERROR shm_unlink(/ucx_shm_posix_1ca90afe) failed: No such file or directory
[1725067875.871091] [cluster-256-hpc-256:100981:0]        mm_posix.c:291  UCX  ERROR shm_unlink(/ucx_shm_posix_2fdf2357) failed: No such file or directory
[1725067875.870989] [cluster-256-hpc-256:100760:0]        mm_posix.c:291  UCX  ERROR shm_unlink(/ucx_shm_posix_23138f96) failed: No such file or directory
[1725067875.870923] [cluster-256-hpc-256:100847:0]        mm_posix.c:291  UCX  ERROR shm_unlink(/ucx_shm_posix_49885b84) failed: No such file or directory
[1725067875.870979] [cluster-256-hpc-256:100847:0]        mm_posix.c:291  UCX  ERROR shm_unlink(/ucx_shm_posix_500c69be) failed: No such file or directory
[1725067875.871051] [cluster-256-hpc-256:101165:0]        mm_posix.c:291  UCX  ERROR shm_unlink(/ucx_shm_posix_10fbdf87) failed: No such file or directory
[1725067875.871127] [cluster-256-hpc-256:101165:0]        mm_posix.c:291  UCX  ERROR shm_unlink(/ucx_shm_posix_16016280) failed: No such file or directory
[1725067875.870913] [cluster-256-hpc-256:101249:0]        mm_posix.c:291  UCX  ERROR shm_unlink(/ucx_shm_posix_64d0a445) failed: No such file or directory
[1725067875.870986] [cluster-256-hpc-256:101249:0]        mm_posix.c:291  UCX  ERROR shm_unlink(/ucx_shm_posix_67c8e46) failed: No such file or directory
[1725067875.870733] [cluster-256-hpc-256:98919:0]        mm_posix.c:291  UCX  ERROR shm_unlink(/ucx_shm_posix_7713ec7) failed: No such file or directory
[1725067875.870783] [cluster-256-hpc-256:98919:0]        mm_posix.c:291  UCX  ERROR shm_unlink(/ucx_shm_posix_299beaa) failed: No such file or directory
[1725067875.870875] [cluster-256-hpc-256:101090:0]        mm_posix.c:291  UCX  ERROR shm_unlink(/ucx_shm_posix_117357f1) failed: No such file or directory
[1725067875.870964] [cluster-256-hpc-256:101090:0]        mm_posix.c:291  UCX  ERROR shm_unlink(/ucx_shm_posix_3830a028) failed: No such file or directory
[1725067875.870825] [cluster-256-hpc-256:98783:0]        mm_posix.c:291  UCX  ERROR shm_unlink(/ucx_shm_posix_718998f5) failed: No such file or directory
[1725067875.870883] [cluster-256-hpc-256:98783:0]        mm_posix.c:291  UCX  ERROR shm_unlink(/ucx_shm_posix_7c33a3a0) failed: No such file or directory
[1725067875.871009] [cluster-256-hpc-256:98782:0]        mm_posix.c:291  UCX  ERROR shm_unlink(/ucx_shm_posix_4069a895) failed: No such file or directory
[1725067875.871066] [cluster-256-hpc-256:98782:0]        mm_posix.c:291  UCX  ERROR shm_unlink(/ucx_shm_posix_3be69070) failed: No such file or directory
[1725067875.870988] [cluster-256-hpc-256:98845:0]        mm_posix.c:291  UCX  ERROR shm_unlink(/ucx_shm_posix_347c8d34) failed: No such file or directory
[1725067875.871051] [cluster-256-hpc-256:98845:0]        mm_posix.c:291  UCX  ERROR shm_unlink(/ucx_shm_posix_25579f7) failed: No such file or directory
[1725067875.870912] [cluster-256-hpc-256:98888:0]        mm_posix.c:291  UCX  ERROR shm_unlink(/ucx_shm_posix_490a5442) failed: No such file or directory
[1725067875.870974] [cluster-256-hpc-256:98888:0]        mm_posix.c:291  UCX  ERROR shm_unlink(/ucx_shm_posix_371eecfd) failed: No such file or directory
[1725067875.871116] [cluster-256-hpc-256:98924:0]        mm_posix.c:291  UCX  ERROR shm_unlink(/ucx_shm_posix_1e06445c) failed: No such file or directory
[1725067875.871170] [cluster-256-hpc-256:98924:0]        mm_posix.c:291  UCX  ERROR shm_unlink(/ucx_shm_posix_389b6ef3) failed: No such file or directory
[1725067875.870877] [cluster-256-hpc-256:98876:0]        mm_posix.c:291  UCX  ERROR shm_unlink(/ucx_shm_posix_625dda8d) failed: No such file or directory
[1725067875.870965] [cluster-256-hpc-256:98876:0]        mm_posix.c:291  UCX  ERROR shm_unlink(/ucx_shm_posix_390def02) failed: No such file or directory
[1725067875.870730] [cluster-256-hpc-256:101114:0]        mm_posix.c:291  UCX  ERROR shm_unlink(/ucx_shm_posix_3d68ecd4) failed: No such file or directory
[1725067875.870788] [cluster-256-hpc-256:101114:0]        mm_posix.c:291  UCX  ERROR shm_unlink(/ucx_shm_posix_75eefa0f) failed: No such file or directory
[1725067875.870919] [cluster-256-hpc-256:101237:0]        mm_posix.c:291  UCX  ERROR shm_unlink(/ucx_shm_posix_59ec47b2) failed: No such file or directory
[1725067875.870960] [cluster-256-hpc-256:99342:0]        mm_posix.c:291  UCX  ERROR shm_unlink(/ucx_shm_posix_d51d97e) failed: No such file or directory
[1725067875.871025] [cluster-256-hpc-256:99342:0]        mm_posix.c:291  UCX  ERROR shm_unlink(/ucx_shm_posix_29f1f6c7) failed: No such file or directory
[1725067875.870794] [cluster-256-hpc-256:99394:0]        mm_posix.c:291  UCX  ERROR shm_unlink(/ucx_shm_posix_69eaabd8) failed: No such file or directory
[1725067875.870868] [cluster-256-hpc-256:99394:0]        mm_posix.c:291  UCX  ERROR shm_unlink(/ucx_shm_posix_64e8d99f) failed: No such file or directory
[1725067875.871135] [cluster-256-hpc-256:99648:0]        mm_posix.c:291  UCX  ERROR shm_unlink(/ucx_shm_posix_3765df19) failed: No such file or directory
[1725067875.871233] [cluster-256-hpc-256:99648:0]        mm_posix.c:291  UCX  ERROR shm_unlink(/ucx_shm_posix_287dd4cd) failed: No such file or directory
[1725067875.870945] [cluster-256-hpc-256:99442:0]        mm_posix.c:291  UCX  ERROR shm_unlink(/ucx_shm_posix_5c87fa55) failed: No such file or directory
[1725067875.871028] [cluster-256-hpc-256:99442:0]        mm_posix.c:291  UCX  ERROR shm_unlink(/ucx_shm_posix_fc5b700) failed: No such file or directory
[1725067875.870882] [cluster-256-hpc-256:99652:0]        mm_posix.c:291  UCX  ERROR shm_unlink(/ucx_shm_posix_3f470f2a) failed: No such file or directory
[1725067875.870943] [cluster-256-hpc-256:99652:0]        mm_posix.c:291  UCX  ERROR shm_unlink(/ucx_shm_posix_28bb4e68) failed: No such file or directory
[1725067875.870823] [cluster-256-hpc-256:99604:0]        mm_posix.c:291  UCX  ERROR shm_unlink(/ucx_shm_posix_14ec3ae4) failed: No such file or directory
[1725067875.870886] [cluster-256-hpc-256:99604:0]        mm_posix.c:291  UCX  ERROR shm_unlink(/ucx_shm_posix_25394860) failed: No such file or directory
[1725067875.870822] [cluster-256-hpc-256:99727:0]        mm_posix.c:291  UCX  ERROR shm_unlink(/ucx_shm_posix_93db6a4) failed: No such file or directory
[1725067875.870885] [cluster-256-hpc-256:99727:0]        mm_posix.c:291  UCX  ERROR shm_unlink(/ucx_shm_posix_56da981c) failed: No such file or directory
[1725067875.870992] [cluster-256-hpc-256:99967:0]        mm_posix.c:291  UCX  ERROR shm_unlink(/ucx_shm_posix_426a6ec0) failed: No such file or directory
[1725067875.871045] [cluster-256-hpc-256:99967:0]        mm_posix.c:291  UCX  ERROR shm_unlink(/ucx_shm_posix_24905fa8) failed: No such file or directory
[1725067875.871041] [cluster-256-hpc-256:100349:0]        mm_posix.c:291  UCX  ERROR shm_unlink(/ucx_shm_posix_75b96b5d) failed: No such file or directory
[1725067875.871103] [cluster-256-hpc-256:100349:0]        mm_posix.c:291  UCX  ERROR shm_unlink(/ucx_shm_posix_469f66a2) failed: No such file or directory
[1725067875.870879] [cluster-256-hpc-256:100482:0]        mm_posix.c:291  UCX  ERROR shm_unlink(/ucx_shm_posix_7fa4d3df) failed: No such file or directory
[1725067875.870951] [cluster-256-hpc-256:100482:0]        mm_posix.c:291  UCX  ERROR shm_unlink(/ucx_shm_posix_4bfb358f) failed: No such file or directory
[1725067875.870919] [cluster-256-hpc-256:100488:0]        mm_posix.c:291  UCX  ERROR shm_unlink(/ucx_shm_posix_c710a21) failed: No such file or directory
[1725067875.871019] [cluster-256-hpc-256:100488:0]        mm_posix.c:291  UCX  ERROR shm_unlink(/ucx_shm_posix_2d396a7f) failed: No such file or directory
[1725067875.870940] [cluster-256-hpc-256:100551:0]        mm_posix.c:291  UCX  ERROR shm_unlink(/ucx_shm_posix_1e3c1da4) failed: No such file or directory
[1725067875.871030] [cluster-256-hpc-256:100551:0]        mm_posix.c:291  UCX  ERROR shm_unlink(/ucx_shm_posix_216d3c82) failed: No such file or directory
[1725067875.870900] [cluster-256-hpc-256:100715:0]        mm_posix.c:291  UCX  ERROR shm_unlink(/ucx_shm_posix_cd3f1f5) failed: No such file or directory
[1725067875.870982] [cluster-256-hpc-256:100715:0]        mm_posix.c:291  UCX  ERROR shm_unlink(/ucx_shm_posix_10a01270) failed: No such file or directory
[1725067875.871036] [cluster-256-hpc-256:100691:0]        mm_posix.c:291  UCX  ERROR shm_unlink(/ucx_shm_posix_35a4b183) failed: No such file or directory
[1725067875.871094] [cluster-256-hpc-256:100839:0]        mm_posix.c:291  UCX  ERROR shm_unlink(/ucx_shm_posix_32bbb1a) failed: No such file or directory
[1725067875.870902] [cluster-256-hpc-256:100657:0]        mm_posix.c:291  UCX  ERROR shm_unlink(/ucx_shm_posix_77a92ce9) failed: No such file or directory
[1725067875.870928] [cluster-256-hpc-256:100774:0]        mm_posix.c:291  UCX  ERROR shm_unlink(/ucx_shm_posix_1593de56) failed: No such file or directory
[1725067875.871022] [cluster-256-hpc-256:100774:0]        mm_posix.c:291  UCX  ERROR shm_unlink(/ucx_shm_posix_2ae0b45e) failed: No such file or directory
[1725067875.871544] [cluster-256-hpc-256:99256:0]        mm_posix.c:291  UCX  ERROR shm_unlink(/ucx_shm_posix_7a3801d1) failed: No such file or directory
[1725067875.871615] [cluster-256-hpc-256:99256:0]        mm_posix.c:291  UCX  ERROR shm_unlink(/ucx_shm_posix_6e0eac44) failed: No such file or directory
[1725067875.871727] [cluster-256-hpc-256:100744:0]        mm_posix.c:291  UCX  ERROR shm_unlink(/ucx_shm_posix_5df85dd8) failed: No such file or directory
[1725067875.871771] [cluster-256-hpc-256:100744:0]        mm_posix.c:291  UCX  ERROR shm_unlink(/ucx_shm_posix_39278f56) failed: No such file or directory
[1725067875.871963] [cluster-256-hpc-256:100657:0]        mm_posix.c:291  UCX  ERROR shm_unlink(/ucx_shm_posix_3f773a32) failed: No such file or directory
[1725067875.872054] [cluster-256-hpc-256:100691:0]        mm_posix.c:291  UCX  ERROR shm_unlink(/ucx_shm_posix_6219daf6) failed: No such file or directory
[1725067875.872036] [cluster-256-hpc-256:100760:0]        mm_posix.c:291  UCX  ERROR shm_unlink(/ucx_shm_posix_1016ee99) failed: No such file or directory
[1725067875.872021] [cluster-256-hpc-256:100657:0]        mm_posix.c:291  UCX  ERROR shm_unlink(/ucx_shm_posix_56da928c) failed: No such file or directory
[1725067875.871962] [cluster-256-hpc-256:101237:0]        mm_posix.c:291  UCX  ERROR shm_unlink(/ucx_shm_posix_66c5a09e) failed: No such file or directory
[1725067875.872024] [cluster-256-hpc-256:101237:0]        mm_posix.c:291  UCX  ERROR shm_unlink(/ucx_shm_posix_6bafbe6) failed: No such file or directory
[1725067875.872095] [cluster-256-hpc-256:100760:0]        mm_posix.c:291  UCX  ERROR shm_unlink(/ucx_shm_posix_2a222cb0) failed: No such file or directory
[1725067875.872109] [cluster-256-hpc-256:100691:0]        mm_posix.c:291  UCX  ERROR shm_unlink(/ucx_shm_posix_2385de5e) failed: No such file or directory
[1725067875.872204] [cluster-256-hpc-256:100839:0]        mm_posix.c:291  UCX  ERROR shm_unlink(/ucx_shm_posix_4a9d831c) failed: No such file or directory
[1725067875.872261] [cluster-256-hpc-256:100839:0]        mm_posix.c:291  UCX  ERROR shm_unlink(/ucx_shm_posix_1f1f8e53) failed: No such file or directory
[1725067875.918298] [cluster-256-hpc-256:98780:0]        mm_posix.c:291  UCX  ERROR shm_unlink(/ucx_shm_posix_548aca79) failed: No such file or directory
[1725067875.918360] [cluster-256-hpc-256:98780:0]        mm_posix.c:291  UCX  ERROR shm_unlink(/ucx_shm_posix_f5344da) failed: No such file or directory
[1725067875.918471] [cluster-256-hpc-256:99076:0]        mm_posix.c:291  UCX  ERROR shm_unlink(/ucx_shm_posix_5d8c5b66) failed: No such file or directory
[1725067875.918523] [cluster-256-hpc-256:99076:0]        mm_posix.c:291  UCX  ERROR shm_unlink(/ucx_shm_posix_4017781f) failed: No such file or directory
[1725067875.919131] [cluster-256-hpc-256:99075:0]        mm_posix.c:291  UCX  ERROR shm_unlink(/ucx_shm_posix_2eefe7a6) failed: No such file or directory
[1725067875.919184] [cluster-256-hpc-256:99075:0]        mm_posix.c:291  UCX  ERROR shm_unlink(/ucx_shm_posix_548b9889) failed: No such file or directory
[1725067875.919337] [cluster-256-hpc-256:98784:0]        mm_posix.c:291  UCX  ERROR shm_unlink(/ucx_shm_posix_2fea4a5b) failed: No such file or directory
[1725067875.919393] [cluster-256-hpc-256:98784:0]        mm_posix.c:291  UCX  ERROR shm_unlink(/ucx_shm_posix_64b120a0) failed: No such file or directory
[1725067875.921079] [cluster-256-hpc-256:99195:0]        mm_posix.c:291  UCX  ERROR shm_unlink(/ucx_shm_posix_236505a7) failed: No such file or directory
[1725067875.921140] [cluster-256-hpc-256:99195:0]        mm_posix.c:291  UCX  ERROR shm_unlink(/ucx_shm_posix_30ad7fb) failed: No such file or directory
[1725067875.924881] [cluster-256-hpc-256:100259:0]        mm_posix.c:291  UCX  ERROR shm_unlink(/ucx_shm_posix_63e24c5d) failed: No such file or directory
[1725067875.924930] [cluster-256-hpc-256:100259:0]        mm_posix.c:291  UCX  ERROR shm_unlink(/ucx_shm_posix_36f066ad) failed: No such file or directory
[1725067875.925223] [cluster-256-hpc-256:99126:0]        mm_posix.c:291  UCX  ERROR shm_unlink(/ucx_shm_posix_660b012e) failed: No such file or directory
[1725067875.925272] [cluster-256-hpc-256:99126:0]        mm_posix.c:291  UCX  ERROR shm_unlink(/ucx_shm_posix_17ad3e06) failed: No such file or directory
[1725067875.925564] [cluster-256-hpc-256:99286:0]        mm_posix.c:291  UCX  ERROR shm_unlink(/ucx_shm_posix_30e4f4b2) failed: No such file or directory
[1725067875.925629] [cluster-256-hpc-256:99286:0]        mm_posix.c:291  UCX  ERROR shm_unlink(/ucx_shm_posix_7d1de543) failed: No such file or directory
[1725067875.925560] [cluster-256-hpc-256:100573:0]        mm_posix.c:291  UCX  ERROR shm_unlink(/ucx_shm_posix_5d460a1c) failed: No such file or directory
[1725067875.925618] [cluster-256-hpc-256:100573:0]        mm_posix.c:291  UCX  ERROR shm_unlink(/ucx_shm_posix_4237378c) failed: No such file or directory
[1725067875.925582] [cluster-256-hpc-256:99734:0]        mm_posix.c:291  UCX  ERROR shm_unlink(/ucx_shm_posix_c331fc5) failed: No such file or directory
[1725067875.925643] [cluster-256-hpc-256:99734:0]        mm_posix.c:291  UCX  ERROR shm_unlink(/ucx_shm_posix_3b6b6b99) failed: No such file or directory
[1725067875.926152] [cluster-256-hpc-256:99225:0]        mm_posix.c:291  UCX  ERROR shm_unlink(/ucx_shm_posix_2af6301b) failed: No such file or directory
[1725067875.926201] [cluster-256-hpc-256:99225:0]        mm_posix.c:291  UCX  ERROR shm_unlink(/ucx_shm_posix_4e9b6aac) failed: No such file or directory
[1725067875.926276] [cluster-256-hpc-256:100168:0]        mm_posix.c:291  UCX  ERROR shm_unlink(/ucx_shm_posix_6822204c) failed: No such file or directory
[1725067875.926319] [cluster-256-hpc-256:100147:0]        mm_posix.c:291  UCX  ERROR shm_unlink(/ucx_shm_posix_44ea2522) failed: No such file or directory
[1725067875.926331] [cluster-256-hpc-256:100168:0]        mm_posix.c:291  UCX  ERROR shm_unlink(/ucx_shm_posix_5b4dc922) failed: No such file or directory
[1725067875.926353] [cluster-256-hpc-256:100179:0]        mm_posix.c:291  UCX  ERROR shm_unlink(/ucx_shm_posix_3746796c) failed: No such file or directory
[1725067875.926405] [cluster-256-hpc-256:100179:0]        mm_posix.c:291  UCX  ERROR shm_unlink(/ucx_shm_posix_6cb606ac) failed: No such file or directory
[1725067875.926392] [cluster-256-hpc-256:100147:0]        mm_posix.c:291  UCX  ERROR shm_unlink(/ucx_shm_posix_6a54405a) failed: No such file or directory
[1725067875.926391] [cluster-256-hpc-256:99810:0]        mm_posix.c:291  UCX  ERROR shm_unlink(/ucx_shm_posix_6c462168) failed: No such file or directory
[1725067875.926454] [cluster-256-hpc-256:99810:0]        mm_posix.c:291  UCX  ERROR shm_unlink(/ucx_shm_posix_7f2d2ef6) failed: No such file or directory
[1725067875.926533] [cluster-256-hpc-256:99658:0]        mm_posix.c:291  UCX  ERROR shm_unlink(/ucx_shm_posix_7dae6f07) failed: No such file or directory
[1725067875.926599] [cluster-256-hpc-256:99658:0]        mm_posix.c:291  UCX  ERROR shm_unlink(/ucx_shm_posix_678973c1) failed: No such file or directory
[1725067875.926602] [cluster-256-hpc-256:100906:0]        mm_posix.c:291  UCX  ERROR shm_unlink(/ucx_shm_posix_3982bed6) failed: No such file or directory
[1725067875.926653] [cluster-256-hpc-256:100906:0]        mm_posix.c:291  UCX  ERROR shm_unlink(/ucx_shm_posix_7f506a27) failed: No such file or directory
[1725067875.926755] [cluster-256-hpc-256:99344:0]        mm_posix.c:291  UCX  ERROR shm_unlink(/ucx_shm_posix_54b470cb) failed: No such file or directory
[1725067875.926822] [cluster-256-hpc-256:99344:0]        mm_posix.c:291  UCX  ERROR shm_unlink(/ucx_shm_posix_3ff32e1d) failed: No such file or directory
[1725067875.927351] [cluster-256-hpc-256:99888:0]        mm_posix.c:291  UCX  ERROR shm_unlink(/ucx_shm_posix_1bc0b28f) failed: No such file or directory
[1725067875.927420] [cluster-256-hpc-256:99888:0]        mm_posix.c:291  UCX  ERROR shm_unlink(/ucx_shm_posix_71060b1a) failed: No such file or directory
[1725067875.927497] [cluster-256-hpc-256:101001:0]        mm_posix.c:291  UCX  ERROR shm_unlink(/ucx_shm_posix_49c77aec) failed: No such file or directory
[1725067875.927567] [cluster-256-hpc-256:101001:0]        mm_posix.c:291  UCX  ERROR shm_unlink(/ucx_shm_posix_2c81e6ad) failed: No such file or directory
[1725067875.927653] [cluster-256-hpc-256:101176:0]        mm_posix.c:291  UCX  ERROR shm_unlink(/ucx_shm_posix_78862b3) failed: No such file or directory
[1725067875.927635] [cluster-256-hpc-256:99125:0]        mm_posix.c:291  UCX  ERROR shm_unlink(/ucx_shm_posix_4a9f4a6b) failed: No such file or directory
[1725067875.927732] [cluster-256-hpc-256:99125:0]        mm_posix.c:291  UCX  ERROR shm_unlink(/ucx_shm_posix_74d8ead2) failed: No such file or directory
[1725067875.927703] [cluster-256-hpc-256:101176:0]        mm_posix.c:291  UCX  ERROR shm_unlink(/ucx_shm_posix_36cb7d2e) failed: No such file or directory
[1725067875.927802] [cluster-256-hpc-256:99430:0]        mm_posix.c:291  UCX  ERROR shm_unlink(/ucx_shm_posix_43b1175f) failed: No such file or directory
[1725067875.927889] [cluster-256-hpc-256:99430:0]        mm_posix.c:291  UCX  ERROR shm_unlink(/ucx_shm_posix_67af7287) failed: No such file or directory
[1725067875.928042] [cluster-256-hpc-256:101063:0]        mm_posix.c:291  UCX  ERROR shm_unlink(/ucx_shm_posix_546ef5a6) failed: No such file or directory
[1725067875.928089] [cluster-256-hpc-256:101063:0]        mm_posix.c:291  UCX  ERROR shm_unlink(/ucx_shm_posix_3862c7e3) failed: No such file or directory
[1725067875.928210] [cluster-256-hpc-256:101216:0]        mm_posix.c:291  UCX  ERROR shm_unlink(/ucx_shm_posix_622d5963) failed: No such file or directory
[1725067875.928148] [cluster-256-hpc-256:99895:0]        mm_posix.c:291  UCX  ERROR shm_unlink(/ucx_shm_posix_3be72f1f) failed: No such file or directory
[1725067875.928246] [cluster-256-hpc-256:99895:0]        mm_posix.c:291  UCX  ERROR shm_unlink(/ucx_shm_posix_5bf16edc) failed: No such file or directory
[1725067875.928189] [cluster-256-hpc-256:99129:0]        mm_posix.c:291  UCX  ERROR shm_unlink(/ucx_shm_posix_5521ad83) failed: No such file or directory
[1725067875.928244] [cluster-256-hpc-256:99129:0]        mm_posix.c:291  UCX  ERROR shm_unlink(/ucx_shm_posix_3b14b684) failed: No such file or directory
[1725067875.928155] [cluster-256-hpc-256:100247:0]        mm_posix.c:291  UCX  ERROR shm_unlink(/ucx_shm_posix_71795fdc) failed: No such file or directory
[1725067875.928210] [cluster-256-hpc-256:100247:0]        mm_posix.c:291  UCX  ERROR shm_unlink(/ucx_shm_posix_53b29f8e) failed: No such file or directory
[1725067875.928203] [cluster-256-hpc-256:100488:0]        mm_posix.c:291  UCX  ERROR shm_unlink(/ucx_shm_posix_7ec6a541) failed: No such file or directory
[1725067875.928255] [cluster-256-hpc-256:100488:0]        mm_posix.c:291  UCX  ERROR shm_unlink(/ucx_shm_posix_4c147fef) failed: No such file or directory
[1725067875.928303] [cluster-256-hpc-256:98850:0]        mm_posix.c:291  UCX  ERROR shm_unlink(/ucx_shm_posix_557ae5ed) failed: No such file or directory
[1725067875.928274] [cluster-256-hpc-256:101216:0]        mm_posix.c:291  UCX  ERROR shm_unlink(/ucx_shm_posix_75859300) failed: No such file or directory
[1725067875.928399] [cluster-256-hpc-256:98850:0]        mm_posix.c:291  UCX  ERROR shm_unlink(/ucx_shm_posix_1b03e908) failed: No such file or directory
[1725067875.928546] [cluster-256-hpc-256:99347:0]        mm_posix.c:291  UCX  ERROR shm_unlink(/ucx_shm_posix_276c5d9f) failed: No such file or directory
[1725067875.928518] [cluster-256-hpc-256:99963:0]        mm_posix.c:291  UCX  ERROR shm_unlink(/ucx_shm_posix_18e17ce1) failed: No such file or directory
[1725067875.928584] [cluster-256-hpc-256:99963:0]        mm_posix.c:291  UCX  ERROR shm_unlink(/ucx_shm_posix_4e076cfd) failed: No such file or directory
[1725067875.928583] [cluster-256-hpc-256:99819:0]        mm_posix.c:291  UCX  ERROR shm_unlink(/ucx_shm_posix_1cc641b8) failed: No such file or directory
[1725067875.928630] [cluster-256-hpc-256:99347:0]        mm_posix.c:291  UCX  ERROR shm_unlink(/ucx_shm_posix_63a36341) failed: No such file or directory
[1725067875.928690] [cluster-256-hpc-256:100312:0]        mm_posix.c:291  UCX  ERROR shm_unlink(/ucx_shm_posix_40830067) failed: No such file or directory
[1725067875.928687] [cluster-256-hpc-256:99819:0]        mm_posix.c:291  UCX  ERROR shm_unlink(/ucx_shm_posix_103e5dee) failed: No such file or directory
[1725067875.928750] [cluster-256-hpc-256:100312:0]        mm_posix.c:291  UCX  ERROR shm_unlink(/ucx_shm_posix_621bcb64) failed: No such file or directory
[1725067875.928788] [cluster-256-hpc-256:100548:0]        mm_posix.c:291  UCX  ERROR shm_unlink(/ucx_shm_posix_29ec477) failed: No such file or directory
[1725067875.928875] [cluster-256-hpc-256:100548:0]        mm_posix.c:291  UCX  ERROR shm_unlink(/ucx_shm_posix_74e1f690) failed: No such file or directory
[1725067875.929012] [cluster-256-hpc-256:100311:0]        mm_posix.c:291  UCX  ERROR shm_unlink(/ucx_shm_posix_54a3342d) failed: No such file or directory
[1725067875.929092] [cluster-256-hpc-256:100311:0]        mm_posix.c:291  UCX  ERROR shm_unlink(/ucx_shm_posix_4a73abbe) failed: No such file or directory
[1725067875.929156] [cluster-256-hpc-256:99604:0]        mm_posix.c:291  UCX  ERROR shm_unlink(/ucx_shm_posix_65d9811d) failed: No such file or directory
[1725067875.929105] [cluster-256-hpc-256:100489:0]        mm_posix.c:291  UCX  ERROR shm_unlink(/ucx_shm_posix_37b58541) failed: No such file or directory
[1725067875.929156] [cluster-256-hpc-256:100489:0]        mm_posix.c:291  UCX  ERROR shm_unlink(/ucx_shm_posix_7035a848) failed: No such file or directory
[1725067875.929136] [cluster-256-hpc-256:100437:0]        mm_posix.c:291  UCX  ERROR shm_unlink(/ucx_shm_posix_55a35650) failed: No such file or directory
[1725067875.929186] [cluster-256-hpc-256:100437:0]        mm_posix.c:291  UCX  ERROR shm_unlink(/ucx_shm_posix_68b9aee6) failed: No such file or directory
[1725067875.929253] [cluster-256-hpc-256:100806:0]        mm_posix.c:291  UCX  ERROR shm_unlink(/ucx_shm_posix_708aad41) failed: No such file or directory
[1725067875.929283] [cluster-256-hpc-256:101057:0]        mm_posix.c:291  UCX  ERROR shm_unlink(/ucx_shm_posix_5a738733) failed: No such file or directory
[1725067875.929228] [cluster-256-hpc-256:99604:0]        mm_posix.c:291  UCX  ERROR shm_unlink(/ucx_shm_posix_507d3cd2) failed: No such file or directory
[1725067875.929259] [cluster-256-hpc-256:101049:0]        mm_posix.c:291  UCX  ERROR shm_unlink(/ucx_shm_posix_1e2de3a9) failed: No such file or directory
[1725067875.929333] [cluster-256-hpc-256:100806:0]        mm_posix.c:291  UCX  ERROR shm_unlink(/ucx_shm_posix_71bfe425) failed: No such file or directory
[1725067875.929331] [cluster-256-hpc-256:101049:0]        mm_posix.c:291  UCX  ERROR shm_unlink(/ucx_shm_posix_476e60ef) failed: No such file or directory
[1725067875.929346] [cluster-256-hpc-256:98876:0]        mm_posix.c:291  UCX  ERROR shm_unlink(/ucx_shm_posix_8c11fa0) failed: No such file or directory
[1725067875.929402] [cluster-256-hpc-256:98876:0]        mm_posix.c:291  UCX  ERROR shm_unlink(/ucx_shm_posix_4a4738d5) failed: No such file or directory
[1725067875.929290] [cluster-256-hpc-256:99264:0]        mm_posix.c:291  UCX  ERROR shm_unlink(/ucx_shm_posix_715f5df3) failed: No such file or directory
[1725067875.929366] [cluster-256-hpc-256:99264:0]        mm_posix.c:291  UCX  ERROR shm_unlink(/ucx_shm_posix_3c8672f3) failed: No such file or directory
[1725067875.929342] [cluster-256-hpc-256:101057:0]        mm_posix.c:291  UCX  ERROR shm_unlink(/ucx_shm_posix_177a875f) failed: No such file or directory
[1725067875.929477] [cluster-256-hpc-256:100937:0]        mm_posix.c:291  UCX  ERROR shm_unlink(/ucx_shm_posix_654d0544) failed: No such file or directory
[1725067875.929545] [cluster-256-hpc-256:100181:0]        mm_posix.c:291  UCX  ERROR shm_unlink(/ucx_shm_posix_7849649b) failed: No such file or directory
[1725067875.929560] [cluster-256-hpc-256:100072:0]        mm_posix.c:291  UCX  ERROR shm_unlink(/ucx_shm_posix_6de2070b) failed: No such file or directory
[1725067875.929527] [cluster-256-hpc-256:100937:0]        mm_posix.c:291  UCX  ERROR shm_unlink(/ucx_shm_posix_41b02f98) failed: No such file or directory
[1725067875.929513] [cluster-256-hpc-256:98919:0]        mm_posix.c:291  UCX  ERROR shm_unlink(/ucx_shm_posix_4e7a2bc4) failed: No such file or directory
[1725067875.929564] [cluster-256-hpc-256:98919:0]        mm_posix.c:291  UCX  ERROR shm_unlink(/ucx_shm_posix_4265baad) failed: No such file or directory
[1725067875.929596] [cluster-256-hpc-256:100181:0]        mm_posix.c:291  UCX  ERROR shm_unlink(/ucx_shm_posix_5028f587) failed: No such file or directory
[1725067875.929610] [cluster-256-hpc-256:99247:0]        mm_posix.c:291  UCX  ERROR shm_unlink(/ucx_shm_posix_1e245c0a) failed: No such file or directory
[1725067875.929660] [cluster-256-hpc-256:99247:0]        mm_posix.c:291  UCX  ERROR shm_unlink(/ucx_shm_posix_742c97b) failed: No such file or directory
[1725067875.929615] [cluster-256-hpc-256:100072:0]        mm_posix.c:291  UCX  ERROR shm_unlink(/ucx_shm_posix_6ae0c4f1) failed: No such file or directory
[1725067875.929696] [cluster-256-hpc-256:100006:0]        mm_posix.c:291  UCX  ERROR shm_unlink(/ucx_shm_posix_655c4560) failed: No such file or directory
[1725067875.929744] [cluster-256-hpc-256:100006:0]        mm_posix.c:291  UCX  ERROR shm_unlink(/ucx_shm_posix_26893dfd) failed: No such file or directory
[1725067875.929807] [cluster-256-hpc-256:100009:0]        mm_posix.c:291  UCX  ERROR shm_unlink(/ucx_shm_posix_4ccdb229) failed: No such file or directory
[1725067875.929859] [cluster-256-hpc-256:100009:0]        mm_posix.c:291  UCX  ERROR shm_unlink(/ucx_shm_posix_54f92feb) failed: No such file or directory
[1725067875.929897] [cluster-256-hpc-256:99394:0]        mm_posix.c:291  UCX  ERROR shm_unlink(/ucx_shm_posix_64a42761) failed: No such file or directory
[1725067875.929946] [cluster-256-hpc-256:99394:0]        mm_posix.c:291  UCX  ERROR shm_unlink(/ucx_shm_posix_5f6f0a4d) failed: No such file or directory
[1725067875.930031] [cluster-256-hpc-256:99727:0]        mm_posix.c:291  UCX  ERROR shm_unlink(/ucx_shm_posix_6e455b1f) failed: No such file or directory
[1725067875.929996] [cluster-256-hpc-256:100246:0]        mm_posix.c:291  UCX  ERROR shm_unlink(/ucx_shm_posix_503036bb) failed: No such file or directory
[1725067875.930055] [cluster-256-hpc-256:100246:0]        mm_posix.c:291  UCX  ERROR shm_unlink(/ucx_shm_posix_32a17de5) failed: No such file or directory
[1725067875.930083] [cluster-256-hpc-256:99727:0]        mm_posix.c:291  UCX  ERROR shm_unlink(/ucx_shm_posix_190ba735) failed: No such file or directory
[1725067875.930157] [cluster-256-hpc-256:101148:0]        mm_posix.c:291  UCX  ERROR shm_unlink(/ucx_shm_posix_11bd2222) failed: No such file or directory
[1725067875.930070] [cluster-256-hpc-256:98783:0]        mm_posix.c:291  UCX  ERROR shm_unlink(/ucx_shm_posix_69c8744d) failed: No such file or directory
[1725067875.930119] [cluster-256-hpc-256:98783:0]        mm_posix.c:291  UCX  ERROR shm_unlink(/ucx_shm_posix_5a464932) failed: No such file or directory
[1725067875.930089] [cluster-256-hpc-256:101114:0]        mm_posix.c:291  UCX  ERROR shm_unlink(/ucx_shm_posix_589204f1) failed: No such file or directory
[1725067875.930163] [cluster-256-hpc-256:101114:0]        mm_posix.c:291  UCX  ERROR shm_unlink(/ucx_shm_posix_cc920fb) failed: No such file or directory
[1725067875.930220] [cluster-256-hpc-256:99652:0]        mm_posix.c:291  UCX  ERROR shm_unlink(/ucx_shm_posix_3d78e187) failed: No such file or directory
[1725067875.930277] [cluster-256-hpc-256:99652:0]        mm_posix.c:291  UCX  ERROR shm_unlink(/ucx_shm_posix_178677b1) failed: No such file or directory
[1725067875.930213] [cluster-256-hpc-256:101148:0]        mm_posix.c:291  UCX  ERROR shm_unlink(/ucx_shm_posix_1cf9ae38) failed: No such file or directory
[1725067875.930313] [cluster-256-hpc-256:100616:0]        mm_posix.c:291  UCX  ERROR shm_unlink(/ucx_shm_posix_1b349e93) failed: No such file or directory
[1725067875.930384] [cluster-256-hpc-256:101207:0]        mm_posix.c:291  UCX  ERROR shm_unlink(/ucx_shm_posix_265ec276) failed: No such file or directory
[1725067875.930371] [cluster-256-hpc-256:100616:0]        mm_posix.c:291  UCX  ERROR shm_unlink(/ucx_shm_posix_7b7eab82) failed: No such file or directory
[1725067875.930437] [cluster-256-hpc-256:101207:0]        mm_posix.c:291  UCX  ERROR shm_unlink(/ucx_shm_posix_beaf183) failed: No such file or directory
[1725067875.930629] [cluster-256-hpc-256:100482:0]        mm_posix.c:291  UCX  ERROR shm_unlink(/ucx_shm_posix_6df3be1) failed: No such file or directory
[1725067875.930678] [cluster-256-hpc-256:100482:0]        mm_posix.c:291  UCX  ERROR shm_unlink(/ucx_shm_posix_e954983) failed: No such file or directory
[1725067875.930705] [cluster-256-hpc-256:99395:0]        mm_posix.c:291  UCX  ERROR shm_unlink(/ucx_shm_posix_35301421) failed: No such file or directory
[1725067875.930762] [cluster-256-hpc-256:99395:0]        mm_posix.c:291  UCX  ERROR shm_unlink(/ucx_shm_posix_27cd5c18) failed: No such file or directory
[1725067875.931003] [cluster-256-hpc-256:100847:0]        mm_posix.c:291  UCX  ERROR shm_unlink(/ucx_shm_posix_46377b37) failed: No such file or directory
[1725067875.931051] [cluster-256-hpc-256:100847:0]        mm_posix.c:291  UCX  ERROR shm_unlink(/ucx_shm_posix_6e09edc9) failed: No such file or directory
[1725067875.931177] [cluster-256-hpc-256:100551:0]        mm_posix.c:291  UCX  ERROR shm_unlink(/ucx_shm_posix_62eb488) failed: No such file or directory
[1725067875.931255] [cluster-256-hpc-256:100551:0]        mm_posix.c:291  UCX  ERROR shm_unlink(/ucx_shm_posix_61169b58) failed: No such file or directory
[1725067875.931287] [cluster-256-hpc-256:101249:0]        mm_posix.c:291  UCX  ERROR shm_unlink(/ucx_shm_posix_5d565acc) failed: No such file or directory
[1725067875.931348] [cluster-256-hpc-256:101249:0]        mm_posix.c:291  UCX  ERROR shm_unlink(/ucx_shm_posix_62aa8f0) failed: No such file or directory
[1725067875.931602] [cluster-256-hpc-256:100715:0]        mm_posix.c:291  UCX  ERROR shm_unlink(/ucx_shm_posix_6ab2b5f2) failed: No such file or directory
[1725067875.931660] [cluster-256-hpc-256:100715:0]        mm_posix.c:291  UCX  ERROR shm_unlink(/ucx_shm_posix_5b350737) failed: No such file or directory
[1725067875.932334] [cluster-256-hpc-256:98845:0]        mm_posix.c:291  UCX  ERROR shm_unlink(/ucx_shm_posix_34f886e0) failed: No such file or directory
[1725067875.932391] [cluster-256-hpc-256:98845:0]        mm_posix.c:291  UCX  ERROR shm_unlink(/ucx_shm_posix_4f938733) failed: No such file or directory
[1725067875.932513] [cluster-256-hpc-256:100349:0]        mm_posix.c:291  UCX  ERROR shm_unlink(/ucx_shm_posix_6558ed3c) failed: No such file or directory
[1725067875.932519] [cluster-256-hpc-256:100421:0]        mm_posix.c:291  UCX  ERROR shm_unlink(/ucx_shm_posix_6b7c01) failed: No such file or directory
[1725067875.932573] [cluster-256-hpc-256:100421:0]        mm_posix.c:291  UCX  ERROR shm_unlink(/ucx_shm_posix_75f3e819) failed: No such file or directory
[1725067875.932558] [cluster-256-hpc-256:99967:0]        mm_posix.c:291  UCX  ERROR shm_unlink(/ucx_shm_posix_ba67ea4) failed: No such file or directory
[1725067875.932606] [cluster-256-hpc-256:99967:0]        mm_posix.c:291  UCX  ERROR shm_unlink(/ucx_shm_posix_230d21c8) failed: No such file or directory
[1725067875.932591] [cluster-256-hpc-256:100349:0]        mm_posix.c:291  UCX  ERROR shm_unlink(/ucx_shm_posix_6bde54d2) failed: No such file or directory
[1725067875.932535] [cluster-256-hpc-256:100774:0]        mm_posix.c:291  UCX  ERROR shm_unlink(/ucx_shm_posix_36a69562) failed: No such file or directory
[1725067875.932604] [cluster-256-hpc-256:100774:0]        mm_posix.c:291  UCX  ERROR shm_unlink(/ucx_shm_posix_4cd85268) failed: No such file or directory
[1725067875.932822] [cluster-256-hpc-256:98888:0]        mm_posix.c:291  UCX  ERROR shm_unlink(/ucx_shm_posix_21793f88) failed: No such file or directory
[1725067875.932874] [cluster-256-hpc-256:98888:0]        mm_posix.c:291  UCX  ERROR shm_unlink(/ucx_shm_posix_ce00052) failed: No such file or directory
[1725067875.932825] [cluster-256-hpc-256:101090:0]        mm_posix.c:291  UCX  ERROR shm_unlink(/ucx_shm_posix_51fd649b) failed: No such file or directory
[1725067875.932895] [cluster-256-hpc-256:101090:0]        mm_posix.c:291  UCX  ERROR shm_unlink(/ucx_shm_posix_73bdba84) failed: No such file or directory
[1725067875.932951] [cluster-256-hpc-256:99442:0]        mm_posix.c:291  UCX  ERROR shm_unlink(/ucx_shm_posix_6af31f9c) failed: No such file or directory
[1725067875.933006] [cluster-256-hpc-256:99442:0]        mm_posix.c:291  UCX  ERROR shm_unlink(/ucx_shm_posix_f1901af) failed: No such file or directory
[1725067875.933041] [cluster-256-hpc-256:99812:0]        mm_posix.c:291  UCX  ERROR shm_unlink(/ucx_shm_posix_2d098083) failed: No such file or directory
[1725067875.933113] [cluster-256-hpc-256:99812:0]        mm_posix.c:291  UCX  ERROR shm_unlink(/ucx_shm_posix_5ea479cb) failed: No such file or directory
[1725067875.933227] [cluster-256-hpc-256:100744:0]        mm_posix.c:291  UCX  ERROR shm_unlink(/ucx_shm_posix_1d570315) failed: No such file or directory
[1725067875.933243] [cluster-256-hpc-256:99256:0]        mm_posix.c:291  UCX  ERROR shm_unlink(/ucx_shm_posix_68bbfa9) failed: No such file or directory
[1725067875.933290] [cluster-256-hpc-256:101167:0]        mm_posix.c:291  UCX  ERROR shm_unlink(/ucx_shm_posix_5b97dc1c) failed: No such file or directory
[1725067875.933279] [cluster-256-hpc-256:100744:0]        mm_posix.c:291  UCX  ERROR shm_unlink(/ucx_shm_posix_3c23f806) failed: No such file or directory
[1725067875.933300] [cluster-256-hpc-256:99256:0]        mm_posix.c:291  UCX  ERROR shm_unlink(/ucx_shm_posix_44b7a5f2) failed: No such file or directory
[1725067875.933356] [cluster-256-hpc-256:100981:0]        mm_posix.c:291  UCX  ERROR shm_unlink(/ucx_shm_posix_317bea67) failed: No such file or directory
[1725067875.933338] [cluster-256-hpc-256:101167:0]        mm_posix.c:291  UCX  ERROR shm_unlink(/ucx_shm_posix_563e46a8) failed: No such file or directory
[1725067875.933421] [cluster-256-hpc-256:99396:0]        mm_posix.c:291  UCX  ERROR shm_unlink(/ucx_shm_posix_5ed1671c) failed: No such file or directory
[1725067875.933424] [cluster-256-hpc-256:100981:0]        mm_posix.c:291  UCX  ERROR shm_unlink(/ucx_shm_posix_69f34cfe) failed: No such file or directory
[1725067875.933487] [cluster-256-hpc-256:99396:0]        mm_posix.c:291  UCX  ERROR shm_unlink(/ucx_shm_posix_7e894945) failed: No such file or directory
[1725067875.933611] [cluster-256-hpc-256:101237:0]        mm_posix.c:291  UCX  ERROR shm_unlink(/ucx_shm_posix_36daef56) failed: No such file or directory
[1725067875.933676] [cluster-256-hpc-256:101237:0]        mm_posix.c:291  UCX  ERROR shm_unlink(/ucx_shm_posix_722a7ffa) failed: No such file or directory
[1725067875.933681] [cluster-256-hpc-256:100657:0]        mm_posix.c:291  UCX  ERROR shm_unlink(/ucx_shm_posix_1f9674d0) failed: No such file or directory
[1725067875.933648] [cluster-256-hpc-256:99788:0]        mm_posix.c:291  UCX  ERROR shm_unlink(/ucx_shm_posix_2033fef9) failed: No such file or directory
[1725067875.933714] [cluster-256-hpc-256:99788:0]        mm_posix.c:291  UCX  ERROR shm_unlink(/ucx_shm_posix_4f278711) failed: No such file or directory
[1725067875.933743] [cluster-256-hpc-256:100657:0]        mm_posix.c:291  UCX  ERROR shm_unlink(/ucx_shm_posix_4cea5889) failed: No such file or directory
[1725067875.933814] [cluster-256-hpc-256:99648:0]        mm_posix.c:291  UCX  ERROR shm_unlink(/ucx_shm_posix_222b77a5) failed: No such file or directory
[1725067875.933873] [cluster-256-hpc-256:99648:0]        mm_posix.c:291  UCX  ERROR shm_unlink(/ucx_shm_posix_36dea96a) failed: No such file or directory
[1725067875.933826] [cluster-256-hpc-256:100041:0]        mm_posix.c:291  UCX  ERROR shm_unlink(/ucx_shm_posix_d4a120c) failed: No such file or directory
[1725067875.933880] [cluster-256-hpc-256:100041:0]        mm_posix.c:291  UCX  ERROR shm_unlink(/ucx_shm_posix_4a0bed75) failed: No such file or directory
[1725067875.933790] [cluster-256-hpc-256:100096:0]        mm_posix.c:291  UCX  ERROR shm_unlink(/ucx_shm_posix_40b08635) failed: No such file or directory
[1725067875.933849] [cluster-256-hpc-256:100096:0]        mm_posix.c:291  UCX  ERROR shm_unlink(/ucx_shm_posix_79dc2767) failed: No such file or directory
[1725067875.933848] [cluster-256-hpc-256:100971:0]        mm_posix.c:291  UCX  ERROR shm_unlink(/ucx_shm_posix_6ce1d3c4) failed: No such file or directory
[1725067875.933869] [cluster-256-hpc-256:101165:0]        mm_posix.c:291  UCX  ERROR shm_unlink(/ucx_shm_posix_1935ae06) failed: No such file or directory
[1725067875.933899] [cluster-256-hpc-256:100971:0]        mm_posix.c:291  UCX  ERROR shm_unlink(/ucx_shm_posix_6d33fd92) failed: No such file or directory
[1725067875.933934] [cluster-256-hpc-256:101165:0]        mm_posix.c:291  UCX  ERROR shm_unlink(/ucx_shm_posix_2c9de7a3) failed: No such file or directory
[1725067875.934039] [cluster-256-hpc-256:100691:0]        mm_posix.c:291  UCX  ERROR shm_unlink(/ucx_shm_posix_4a5f5fcc) failed: No such file or directory
[1725067875.934109] [cluster-256-hpc-256:100691:0]        mm_posix.c:291  UCX  ERROR shm_unlink(/ucx_shm_posix_3ac930de) failed: No such file or directory
[1725067875.934217] [cluster-256-hpc-256:99342:0]        mm_posix.c:291  UCX  ERROR shm_unlink(/ucx_shm_posix_73e7c5d1) failed: No such file or directory
[1725067875.934270] [cluster-256-hpc-256:99342:0]        mm_posix.c:291  UCX  ERROR shm_unlink(/ucx_shm_posix_3fad3faf) failed: No such file or directory
[1725067875.934288] [cluster-256-hpc-256:99307:0]        mm_posix.c:291  UCX  ERROR shm_unlink(/ucx_shm_posix_5b43a97e) failed: No such file or directory
[1725067875.934366] [cluster-256-hpc-256:99307:0]        mm_posix.c:291  UCX  ERROR shm_unlink(/ucx_shm_posix_58ede98f) failed: No such file or directory
[1725067875.934753] [cluster-256-hpc-256:100357:0]        mm_posix.c:291  UCX  ERROR shm_unlink(/ucx_shm_posix_7eb44159) failed: No such file or directory
[1725067875.934727] [cluster-256-hpc-256:98924:0]        mm_posix.c:291  UCX  ERROR shm_unlink(/ucx_shm_posix_53356f5f) failed: No such file or directory
[1725067875.934788] [cluster-256-hpc-256:98924:0]        mm_posix.c:291  UCX  ERROR shm_unlink(/ucx_shm_posix_51318c76) failed: No such file or directory
[1725067875.934811] [cluster-256-hpc-256:100357:0]        mm_posix.c:291  UCX  ERROR shm_unlink(/ucx_shm_posix_6969a83) failed: No such file or directory
[1725067875.935052] [cluster-256-hpc-256:100839:0]        mm_posix.c:291  UCX  ERROR shm_unlink(/ucx_shm_posix_69fc5d8b) failed: No such file or directory
[1725067875.935100] [cluster-256-hpc-256:100839:0]        mm_posix.c:291  UCX  ERROR shm_unlink(/ucx_shm_posix_2aaf6da9) failed: No such file or directory
[1725067875.935287] [cluster-256-hpc-256:100760:0]        mm_posix.c:291  UCX  ERROR shm_unlink(/ucx_shm_posix_40ba4e30) failed: No such file or directory
[1725067875.935355] [cluster-256-hpc-256:100760:0]        mm_posix.c:291  UCX  ERROR shm_unlink(/ucx_shm_posix_b07168a) failed: No such file or directory
[1725067875.937579] [cluster-256-hpc-256:98782:0]        mm_posix.c:291  UCX  ERROR shm_unlink(/ucx_shm_posix_ef01ed9) failed: No such file or directory
[1725067875.937647] [cluster-256-hpc-256:98782:0]        mm_posix.c:291  UCX  ERROR shm_unlink(/ucx_shm_posix_645fc580) failed: No such file or directory
End time: 1725067876
