Start time: 1725137050
LAMMPS (17 Apr 2024 - Development - a8687b5)
KOKKOS mode with Kokkos version 4.3.1 is enabled (src/KOKKOS/kokkos.cpp:72)
  will use up to 8 GPU(s) per node
WARNING: Turning off GPU-aware MPI since it is not detected, use '-pk kokkos gpu/aware on' to override (src/KOKKOS/kokkos.cpp:291)
  using 1 OpenMP thread(s) per MPI task
Reading data file ...
  triclinic box = (0 0 0) to (22.326 11.1412 13.778966) with tilt (0 -5.02603 0)
  4 by 2 by 4 MPI processor grid
  reading atoms ...
  304 atoms
  reading velocities ...
  304 velocities
  read_data CPU = 0.034 seconds
Replication is creating a 64x64x32 = 131072 times larger system...
  triclinic box = (0 0 0) to (1428.864 713.0368 440.92691) with tilt (0 -160.83296 0)
  4 by 4 by 2 MPI processor grid
  bounding box image = (0 -1 -1) to (0 1 1)
  bounding box extra memory = 0.03 MB
  average # of replicas added to proc = 5431.66 out of 131072 (4.14%)
  39845888 atoms
  replicate CPU = 0.181 seconds
Neighbor list info ...
  update: every = 20 steps, delay = 0 steps, check = no
  max neighbors/atom: 2000, page size: 100000
  master list distance cutoff = 11
  ghost atom cutoff = 11
  binsize = 11, bins = 145 65 41
  2 neighbor lists, perpetual/occasional/extra = 2 0 0
  (1) pair reaxff/kk, perpetual
      attributes: half, newton off, ghost, kokkos_device
      pair build: half/bin/newtoff/ghost/kk/device
      stencil: full/ghost/bin/3d
      bin: kk/device
  (2) fix qeq/reax/kk, perpetual
      attributes: full, newton off, kokkos_device
      pair build: full/bin/kk/device
      stencil: full/bin/3d
      bin: kk/device
Setting up Verlet run ...
  Unit style    : real
  Current step  : 0
  Time step     : 0.1
Per MPI rank memory allocation (min/avg/max) = 1.319e+04 | 1.319e+04 | 1.319e+04 Mbytes
   Step          Temp          PotEng         Press          E_vdwl         E_coul         Volume    
         0   300           -113.27833      439.02045     -111.57687     -1.7014647      4.4923072e+08
        10   300.76708     -113.28045      807.30075     -111.57901     -1.7014362      4.4923072e+08
        20   302.42351     -113.28524      1696.9779     -111.58392     -1.7013253      4.4923072e+08
        30   302.57589     -113.28557      4297.9287     -111.58447     -1.7010962      4.4923072e+08
        40   300.62224     -113.27967      6393.3236     -111.5789      -1.7007689      4.4923072e+08
        50   297.41892     -113.27008      6471.2021     -111.56968     -1.7004025      4.4923072e+08
        60   294.72954     -113.26202      6185.6821     -111.56199     -1.7000319      4.4923072e+08
        70   294.66681     -113.26179      6831.2056     -111.56213     -1.6996547      4.4923072e+08
        80   297.78809     -113.27107      8233.8701     -111.5718      -1.699276       4.4923072e+08
        90   301.67959     -113.28267      9372.0744     -111.58373     -1.6989385      4.4923072e+08
       100   302.56512     -113.28525      10370.577     -111.58656     -1.698695       4.4923072e+08
Loop time of 71.2731 on 32 procs for 100 steps with 39845888 atoms

Performance: 0.012 ns/day, 1979.809 hours/ns, 1.403 timesteps/s, 55.906 Matom-step/s
94.1% CPU use with 32 MPI tasks x 1 OpenMP threads

MPI task timing breakdown:
Section |  min time  |  avg time  |  max time  |%varavg| %total
---------------------------------------------------------------
Pair    | 16.497     | 17.111     | 17.436     |   9.2 | 24.01
Neigh   | 1.3304     | 2.2175     | 2.6174     |  30.3 |  3.11
Comm    | 4.8358     | 5.1791     | 5.8053     |  16.8 |  7.27
Output  | 0.0075098  | 0.020967   | 0.033789   |   6.9 |  0.03
Modify  | 46.025     | 46.425     | 47.304     |   6.6 | 65.14
Other   |            | 0.3188     |            |       |  0.45

Nlocal:    1.24518e+06 ave 1.24523e+06 max 1.24514e+06 min
Histogram: 2 3 6 3 3 6 4 1 3 1
Nghost:         391229 ave      391292 max      391150 min
Histogram: 1 0 2 2 9 5 4 5 2 2
Neighs:     3.2187e+08 ave  3.2188e+08 max 3.21861e+08 min
Histogram: 3 4 3 4 4 4 3 5 1 1
FullNghs:  6.10993e+08 ave 6.11013e+08 max 6.10973e+08 min
Histogram: 1 5 2 3 3 6 5 3 3 1

Total # of neighbors = 1.9551784e+10
Ave neighs/atom = 490.68511
Neighbor list builds = 5
Dangerous builds not checked
Total wall time: 0:01:20
End time: 1725137135
Start time: 1725137135
LAMMPS (17 Apr 2024 - Development - a8687b5)
KOKKOS mode with Kokkos version 4.3.1 is enabled (src/KOKKOS/kokkos.cpp:72)
  will use up to 8 GPU(s) per node
WARNING: Turning off GPU-aware MPI since it is not detected, use '-pk kokkos gpu/aware on' to override (src/KOKKOS/kokkos.cpp:291)
  using 1 OpenMP thread(s) per MPI task
Reading data file ...
  triclinic box = (0 0 0) to (22.326 11.1412 13.778966) with tilt (0 -5.02603 0)
  4 by 2 by 4 MPI processor grid
  reading atoms ...
  304 atoms
  reading velocities ...
  304 velocities
  read_data CPU = 0.033 seconds
Replication is creating a 64x32x32 = 65536 times larger system...
  triclinic box = (0 0 0) to (1428.864 356.5184 440.92691) with tilt (0 -160.83296 0)
  8 by 2 by 2 MPI processor grid
  bounding box image = (0 -1 -1) to (0 1 1)
  bounding box extra memory = 0.03 MB
  average # of replicas added to proc = 2753.03 out of 65536 (4.20%)
  19922944 atoms
  replicate CPU = 0.102 seconds
Neighbor list info ...
  update: every = 20 steps, delay = 0 steps, check = no
  max neighbors/atom: 2000, page size: 100000
  master list distance cutoff = 11
  ghost atom cutoff = 11
  binsize = 11, bins = 145 33 41
  2 neighbor lists, perpetual/occasional/extra = 2 0 0
  (1) pair reaxff/kk, perpetual
      attributes: half, newton off, ghost, kokkos_device
      pair build: half/bin/newtoff/ghost/kk/device
      stencil: full/ghost/bin/3d
      bin: kk/device
  (2) fix qeq/reax/kk, perpetual
      attributes: full, newton off, kokkos_device
      pair build: full/bin/kk/device
      stencil: full/bin/3d
      bin: kk/device
Setting up Verlet run ...
  Unit style    : real
  Current step  : 0
  Time step     : 0.1
Per MPI rank memory allocation (min/avg/max) = 6784 | 6784 | 6784 Mbytes
   Step          Temp          PotEng         Press          E_vdwl         E_coul         Volume    
         0   300           -113.27833      439.02029     -111.57687     -1.7014647      2.2461536e+08
        10   300.76787     -113.28045      806.94581     -111.57901     -1.7014353      2.2461536e+08
        20   302.41893     -113.28523      1697.8315     -111.5839      -1.701324       2.2461536e+08
        30   302.57545     -113.28557      4298.4907     -111.58447     -1.7010952      2.2461536e+08
        40   300.64331     -113.27974      6396.7715     -111.57897     -1.7007684      2.2461536e+08
        50   297.45505     -113.27019      6484.6634     -111.56979     -1.7004028      2.2461536e+08
        60   294.75204     -113.26209      6200.5484     -111.56205     -1.7000331      2.2461536e+08
        70   294.65378     -113.26175      6838.3628     -111.56209     -1.6996571      2.2461536e+08
        80   297.75342     -113.27097      8234.8653     -111.57169     -1.6992792      2.2461536e+08
        90   301.65877     -113.28261      9374.4075     -111.58366     -1.6989424      2.2461536e+08
       100   302.57974     -113.2853       10365.454     -111.5866      -1.6986994      2.2461536e+08
Loop time of 37.7711 on 32 procs for 100 steps with 19922944 atoms

Performance: 0.023 ns/day, 1049.197 hours/ns, 2.648 timesteps/s, 52.747 Matom-step/s
94.0% CPU use with 32 MPI tasks x 1 OpenMP threads

MPI task timing breakdown:
Section |  min time  |  avg time  |  max time  |%varavg| %total
---------------------------------------------------------------
Pair    | 8.5285     | 8.8456     | 9.0125     |   6.1 | 23.42
Neigh   | 0.68059    | 1.108      | 1.3348     |  22.4 |  2.93
Comm    | 2.734      | 2.9083     | 3.2345     |  10.7 |  7.70
Output  | 0.014464   | 0.032722   | 0.061476   |   7.7 |  0.09
Modify  | 24.475     | 24.703     | 25.129     |   4.8 | 65.40
Other   |            | 0.1739     |            |       |  0.46

Nlocal:         622592 ave      622639 max      622565 min
Histogram: 6 4 6 3 3 4 0 3 2 1
Nghost:         245631 ave      245694 max      245545 min
Histogram: 1 1 1 5 1 10 2 6 2 3
Neighs:    1.62762e+08 ave 1.62775e+08 max 1.62755e+08 min
Histogram: 3 8 5 3 3 4 0 3 2 1
FullNghs:  3.05497e+08 ave 3.05522e+08 max 3.05482e+08 min
Histogram: 4 8 4 3 4 2 2 3 1 1

Total # of neighbors = 9.7758959e+09
Ave neighs/atom = 490.68531
Neighbor list builds = 5
Dangerous builds not checked
Total wall time: 0:00:43
End time: 1725137184
